 DBCSR| Multiplication driver                                                SMM
 DBCSR| Multrec recursion limit                                              512
 DBCSR| Multiplication stack size                                           1000
 DBCSR| Multiplication size stacks                                             3
 DBCSR| Use subcommunicators                                                   T
 DBCSR| Use MPI combined types                                                 F
 DBCSR| Use MPI memory allocation                                              T
 DBCSR| Use Communication thread                                               T
 DBCSR| Communication thread load                                             87


  **** **** ******  **  PROGRAM STARTED AT               2015-03-10 12:08:27.943
 ***** ** ***  *** **   PROGRAM STARTED ON                                  n268
 **    ****   ******    PROGRAM STARTED BY                                 bja39
 ***** **    ** ** **   PROGRAM PROCESS ID                                 15341
  **** **  *******  **  PROGRAM STARTED IN /home/dlambrecht/bja39/cp2k/hfx/hfx99

 CP2K| version string:                                          CP2K version 2.6
 CP2K| source code revision number:                                  git:9520686
 CP2K| is freely available from                             http://www.cp2k.org/
 CP2K| Program compiled at                          Fri Feb 27 09:44:54 EST 2015
 CP2K| Program compiled on                            login0a.frank.sam.pitt.edu
 CP2K| Program compiled for                                                Frank
 CP2K| Input file name                                                   hfx.inp
 
 GLOBAL| Force Environment number                                              1
 GLOBAL| Basis set file name                                           HFX_BASIS
 GLOBAL| Geminal file name                                         BASIS_GEMINAL
 GLOBAL| Potential file name                                      GTH_POTENTIALS
 GLOBAL| MM Potential file name                                     MM_POTENTIAL
 GLOBAL| Coordinate file name                                          water.xyz
 GLOBAL| Method name                                                        CP2K
 GLOBAL| Project name                                                      WATER
 GLOBAL| Preferred FFT library                                             FFTW3
 GLOBAL| Preferred diagonalization lib.                                       SL
 GLOBAL| Run type                                                         ENERGY
 GLOBAL| All-to-all communication in single precision                          F
 GLOBAL| FFTs using library dependent lengths                                  F
 GLOBAL| Global print level                                               MEDIUM
 GLOBAL| Total number of message passing processes                            64
 GLOBAL| Number of threads for this process                                    1
 GLOBAL| This output is from process                                           0

 MEMORY| system memory details [Kb]
 MEMORY|                        rank 0           min           max       average
 MEMORY| MemTotal             32978168      32978168      32989296      32980990
 MEMORY| MemFree               6860012       5652412      11009740       8447837
 MEMORY| Buffers                194492        192800        205492        199253
 MEMORY| Cached               20946504      17132232      20946504      19099872
 MEMORY| Slab                  3596108       3294232       4953312       3876736
 MEMORY| SReclaimable          3176996       2894428       4472216       3447049
 MEMORY| MemLikelyFree        31178004      31140504      31240628      31194011


 *** Fundamental physical constants (SI units) ***

 *** Literature: B. J. Mohr and B. N. Taylor,
 ***             CODATA recommended values of the fundamental physical
 ***             constants: 2006, Web Version 5.1
 ***             http://physics.nist.gov/constants

 Speed of light in vacuum [m/s]                             2.99792458000000E+08
 Magnetic constant or permeability of vacuum [N/A**2]       1.25663706143592E-06
 Electric constant or permittivity of vacuum [F/m]          8.85418781762039E-12
 Planck constant (h) [J*s]                                  6.62606896000000E-34
 Planck constant (h-bar) [J*s]                              1.05457162825177E-34
 Elementary charge [C]                                      1.60217648700000E-19
 Electron mass [kg]                                         9.10938215000000E-31
 Electron g factor [ ]                                     -2.00231930436220E+00
 Proton mass [kg]                                           1.67262163700000E-27
 Fine-structure constant                                    7.29735253760000E-03
 Rydberg constant [1/m]                                     1.09737315685270E+07
 Avogadro constant [1/mol]                                  6.02214179000000E+23
 Boltzmann constant [J/K]                                   1.38065040000000E-23
 Atomic mass unit [kg]                                      1.66053878200000E-27
 Bohr radius [m]                                            5.29177208590000E-11

 *** Conversion factors ***

 [u] -> [a.u.]                                              1.82288848426455E+03
 [Angstrom] -> [Bohr] = [a.u.]                              1.88972613288564E+00
 [a.u.] = [Bohr] -> [Angstrom]                              5.29177208590000E-01
 [a.u.] -> [s]                                              2.41888432650478E-17
 [a.u.] -> [fs]                                             2.41888432650478E-02
 [a.u.] -> [J]                                              4.35974393937059E-18
 [a.u.] -> [N]                                              8.23872205491840E-08
 [a.u.] -> [K]                                              3.15774647902944E+05
 [a.u.] -> [kJ/mol]                                         2.62549961709828E+03
 [a.u.] -> [kcal/mol]                                       6.27509468713739E+02
 [a.u.] -> [Pa]                                             2.94210107994716E+13
 [a.u.] -> [bar]                                            2.94210107994716E+08
 [a.u.] -> [atm]                                            2.90362800883016E+08
 [a.u.] -> [eV]                                             2.72113838565563E+01
 [a.u.] -> [Hz]                                             6.57968392072181E+15
 [a.u.] -> [1/cm] (wave numbers)                            2.19474631370540E+05
 [a.u./Bohr**2] -> [1/cm]                                   5.14048714338585E+03
 

 CELL_TOP| Volume [angstrom^3]:                                         1915.864
 CELL_TOP| Vector a [angstrom    12.420     0.000     0.000    |a| =      12.420
 CELL_TOP| Vector b [angstrom     0.000    12.420     0.000    |b| =      12.420
 CELL_TOP| Vector c [angstrom     0.000     0.000    12.420    |c| =      12.420
 CELL_TOP| Angle (b,c), alpha [degree]:                                   90.000
 CELL_TOP| Angle (a,c), beta  [degree]:                                   90.000
 CELL_TOP| Angle (a,b), gamma [degree]:                                   90.000
 CELL_TOP| Numerically orthorhombic:                                         YES
 
 GENERATE|  Preliminary Number of Bonds generated:                             0
 GENERATE|  Achieved consistency in connectivity generation.

 CELL| Volume [angstrom^3]:                                             1915.864
 CELL| Vector a [angstrom]:      12.420     0.000     0.000    |a| =      12.420
 CELL| Vector b [angstrom]:       0.000    12.420     0.000    |b| =      12.420
 CELL| Vector c [angstrom]:       0.000     0.000    12.420    |c| =      12.420
 CELL| Angle (b,c), alpha [degree]:                                       90.000
 CELL| Angle (a,c), beta  [degree]:                                       90.000
 CELL| Angle (a,b), gamma [degree]:                                       90.000
 CELL| Numerically orthorhombic:                                             YES

 CELL_REF| Volume [angstrom^3]:                                         1915.864
 CELL_REF| Vector a [angstrom    12.420     0.000     0.000    |a| =      12.420
 CELL_REF| Vector b [angstrom     0.000    12.420     0.000    |b| =      12.420
 CELL_REF| Vector c [angstrom     0.000     0.000    12.420    |c| =      12.420
 CELL_REF| Angle (b,c), alpha [degree]:                                   90.000
 CELL_REF| Angle (a,c), beta  [degree]:                                   90.000
 CELL_REF| Angle (a,b), gamma [degree]:                                   90.000
 CELL_REF| Numerically orthorhombic:                                         YES

 *******************************************************************************
 *******************************************************************************
 **                                                                           **
 **     #####                         ##              ##                      **
 **    ##   ##            ##          ##              ##                      **
 **   ##     ##                       ##            ######                    **
 **   ##     ##  ##   ##  ##   #####  ##  ##   ####   ##    #####    #####    **
 **   ##     ##  ##   ##  ##  ##      ## ##   ##      ##   ##   ##  ##   ##   **
 **   ##  ## ##  ##   ##  ##  ##      ####     ###    ##   ######   ######    **
 **    ##  ###   ##   ##  ##  ##      ## ##      ##   ##   ##       ##        **
 **     #######   #####   ##   #####  ##  ##  ####    ##    #####   ##        **
 **           ##                                                    ##        **
 **                                                                           **
 **                                                ... make the atoms dance   **
 **                                                                           **
 **            Copyright (C) by CP2K Developers Group (2000 - 2014)           **
 **                                                                           **
 *******************************************************************************

 DFT| Spin restricted Kohn-Sham (RKS) calculation                            RKS
 DFT| Multiplicity                                                             1
 DFT| Number of spin states                                                    1
 DFT| Charge                                                                   0
 DFT| Self-interaction correction (SIC)                                       NO
 DFT| Cutoffs: density                                              1.000000E-10
 DFT|          gradient                                             1.000000E-10
 DFT|          tau                                                  1.000000E-10
 DFT|          cutoff_smoothing_range                               0.000000E+00
 DFT| XC density smoothing                                                  NONE
 DFT| XC derivatives                                                          PW
 FUNCTIONAL| ROUTINE=NEW
 FUNCTIONAL| PBE:
 FUNCTIONAL| J.P.Perdew, K.Burke, M.Ernzerhof, Phys. Rev. Letter, vol. 77, n 18,
 FUNCTIONAL|  pp. 3865-3868, (1996)sx=0.010sc=1.000{spin unpolarized}
 vdW POTENTIAL|                                                   Pair Potential
 vdW POTENTIAL|          DFT-D3 (Version 3.1)
 vdW POTENTIAL|          Potential Form: S. Grimme et al, JCP 132: 154104 (2010)
 vdW POTENTIAL|          Zero Damping
 vdW POTENTIAL|          Cutoff Radius [Bohr]:                             30.24
 vdW POTENTIAL|          s6 Scaling Factor:                               1.0000
 vdW POTENTIAL|          sr6 Scaling Factor:                              1.2870
 vdW POTENTIAL|          s8 Scaling Factor:                               0.9280
 vdW POTENTIAL|          Cutoff for CN calculation:                   0.1000E-05

 QS| Method:                                                                 GPW
 QS| Density plane wave grid type                        NON-SPHERICAL FULLSPACE
 QS| Number of grid levels:                                                    4
 QS| Density cutoff [a.u.]:                                                200.0
 QS| Multi grid cutoff [a.u.]: 1) grid level                               200.0
 QS|                           2) grid level                                66.7
 QS|                           3) grid level                                22.2
 QS|                           4) grid level                                 7.4
 QS| Grid level progression factor:                                          3.0
 QS| Relative density cutoff [a.u.]:                                        20.0
 QS| Consistent realspace mapping and integration 
 QS| Interaction thresholds: eps_pgf_orb:                                1.0E-05
 QS|                         eps_filter_matrix:                          0.0E+00
 QS|                         eps_core_charge:                            1.0E-12
 QS|                         eps_rho_gspace:                             1.0E-10
 QS|                         eps_rho_rspace:                             1.0E-10
 QS|                         eps_gvg_rspace:                             1.0E-05
 QS|                         eps_ppl:                                    1.0E-02
 QS|                         eps_ppnl:                                   1.0E-07


 ATOMIC KIND INFORMATION

  1. Atomic kind: O                                     Number of atoms:      64

     Orbital Basis Set                                                  DZVP-GTH

       Number of orbital shell sets:                                           3
       Number of orbital shells:                                               5
       Number of primitive Cartesian functions:                                5
       Number of Cartesian basis functions:                                   14
       Number of spherical basis functions:                                   13
       Norm type:                                                              2

       Normalised Cartesian orbitals:

                        Set   Shell   Orbital            Exponent    Coefficient

                          1       1    2s                8.304386       0.778600
                                                         2.457948      -0.081348
                                                         0.759737      -0.597925

                          1       2    3px               8.304386      -2.634104
                                                         2.457948      -1.739269
                                                         0.759737      -0.632383
                          1       2    3py               8.304386      -2.634104
                                                         2.457948      -1.739269
                                                         0.759737      -0.632383
                          1       2    3pz               8.304386      -2.634104
                                                         2.457948      -1.739269
                                                         0.759737      -0.632383

                          2       1    2s                0.213639       0.223960

                          2       2    3px               0.213639       0.207033
                          2       2    3py               0.213639       0.207033
                          2       2    3pz               0.213639       0.207033

                          3       1    3dx2              1.185000       2.215218
                          3       1    3dxy              1.185000       3.836871
                          3       1    3dxz              1.185000       3.836871
                          3       1    3dy2              1.185000       2.215218
                          3       1    3dyz              1.185000       3.836871
                          3       1    3dz2              1.185000       2.215218

     Potential information for                                        GTH-PBE-q6

       Description:                       Goedecker-Teter-Hutter pseudopotential
                                           Goedecker et al., PRB 54, 1703 (1996)
                                          Hartwigsen et al., PRB 58, 3641 (1998)
                                                      Krack, TCA 114, 145 (2005)

       Gaussian exponent of the core charge distribution:               8.360253
       Electronic configuration (s p d ...):                               2   4

       Parameters of the local part of the GTH pseudopotential:

                          rloc        C1          C2          C3          C4
                        0.244554  -16.667215    2.487311

       Parameters of the non-local part of the GTH pseudopotential:

                   l      r(l)      h(i,j,l)

                   0    0.220956   18.337458
                   1    0.211332

  2. Atomic kind: H                                     Number of atoms:     128

     Orbital Basis Set                                                  DZVP-GTH

       Number of orbital shell sets:                                           3
       Number of orbital shells:                                               3
       Number of primitive Cartesian functions:                                5
       Number of Cartesian basis functions:                                    5
       Number of spherical basis functions:                                    5
       Norm type:                                                              2

       Normalised Cartesian orbitals:

                        Set   Shell   Orbital            Exponent    Coefficient

                          1       1    1s                8.374435      -0.191705
                                                         1.805868      -0.285532
                                                         0.485253      -0.319237

                          2       1    1s                0.165824       0.185202

                          3       1    2px               0.727000       0.956881
                          3       1    2py               0.727000       0.956881
                          3       1    2pz               0.727000       0.956881

     Potential information for                                        GTH-PBE-q1

       Description:                       Goedecker-Teter-Hutter pseudopotential
                                           Goedecker et al., PRB 54, 1703 (1996)
                                          Hartwigsen et al., PRB 58, 3641 (1998)
                                                      Krack, TCA 114, 145 (2005)

       Gaussian exponent of the core charge distribution:              12.500000
       Electronic configuration (s p d ...):                                   1

       Parameters of the local part of the GTH pseudopotential:

                          rloc        C1          C2          C3          C4
                        0.200000   -4.178900    0.724463


 MOLECULE KIND INFORMATION


 All atoms are their own molecule, skipping detailed information


 TOTAL NUMBERS AND MAXIMUM NUMBERS

  Total number of            - Atomic kinds:                                   2
                             - Atoms:                                        192
                             - Shell sets:                                   576
                             - Shells:                                       704
                             - Primitive Cartesian functions:                960
                             - Cartesian basis functions:                   1536
                             - Spherical basis functions:                   1472

  Maximum angular momentum of- Orbital basis functions:                        2
                             - Local part of the GTH pseudopotential:          2
                             - Non-local part of the GTH pseudopotential:      0


 MODULE QUICKSTEP:  ATOMIC COORDINATES IN angstrom

  Atom  Kind  Element       X           Y           Z          Z(eff)       Mass

       1     1 O    8    3.858587   -4.753318    5.509197      6.00      15.9994
       2     2 H    1    4.210995   -5.556871    5.999459      1.00       1.0079
       3     2 H    1    3.094708   -4.317266    5.913595      1.00       1.0079
       4     1 O    8   -3.546076    1.745624    4.288021      6.00      15.9994
       5     2 H    1   -3.357258    0.836994    4.152946      1.00       1.0079
       6     2 H    1   -3.608914    1.943698    5.269839      1.00       1.0079
       7     1 O    8    4.569136    2.934327   -7.099972      6.00      15.9994
       8     2 H    1    3.678596    3.229107   -6.804983      1.00       1.0079
       9     2 H    1    4.495367    2.784591   -8.045803      1.00       1.0079
      10     1 O    8   -2.573180   -0.106310   -3.414714      6.00      15.9994
      11     2 H    1   -2.038669    0.415523   -2.828965      1.00       1.0079
      12     2 H    1   -1.889161   -0.614820   -3.928063      1.00       1.0079
      13     1 O    8   -3.762503   -7.710594    5.627998      6.00      15.9994
      14     2 H    1   -4.634354   -7.419980    5.987479      1.00       1.0079
      15     2 H    1   -3.852063   -7.634849    4.660781      1.00       1.0079
      16     1 O    8   -6.713126   -0.075920    2.317684      6.00      15.9994
      17     2 H    1   -6.041585   -0.456040    3.007998      1.00       1.0079
      18     2 H    1   -6.258264    0.734307    1.958295      1.00       1.0079
      19     1 O    8    4.010954   -5.581769   -0.412691      6.00      15.9994
      20     2 H    1    3.332131   -5.616691    0.307694      1.00       1.0079
      21     2 H    1    3.905154   -4.753344   -0.836952      1.00       1.0079
      22     1 O    8   -2.669263   -3.081051   -1.225935      6.00      15.9994
      23     2 H    1   -3.248632   -2.449171   -1.738693      1.00       1.0079
      24     2 H    1   -2.191896   -2.598852   -0.576307      1.00       1.0079
      25     1 O    8    5.457624   -3.168804    3.100260      6.00      15.9994
      26     2 H    1    4.685499   -3.245800    3.622418      1.00       1.0079
      27     2 H    1    5.257937   -3.050750    2.131140      1.00       1.0079
      28     1 O    8    2.007879    3.802589   -6.644120      6.00      15.9994
      29     2 H    1    1.380904    3.070273   -6.803869      1.00       1.0079
      30     2 H    1    1.836607    4.066629   -5.709998      1.00       1.0079
      31     1 O    8    4.060883   -3.892921   -3.059677      6.00      15.9994
      32     2 H    1    3.233271   -3.720667   -3.695376      1.00       1.0079
      33     2 H    1    4.336690   -2.982510   -2.984822      1.00       1.0079
      34     1 O    8    1.977359   -1.844229    1.022567      6.00      15.9994
      35     2 H    1    1.565064   -2.471360    1.649594      1.00       1.0079
      36     2 H    1    1.619481   -1.913312    0.065695      1.00       1.0079
      37     1 O    8    0.733845   -5.743288   -5.010069      6.00      15.9994
      38     2 H    1    1.479577   -6.329923   -4.818933      1.00       1.0079
      39     2 H    1    0.449115   -5.709569   -5.947356      1.00       1.0079
      40     1 O    8   -7.516646   -8.678106   -3.237157      6.00      15.9994
      41     2 H    1   -7.873766   -9.602722   -3.081415      1.00       1.0079
      42     2 H    1   -7.132394   -8.578896   -2.346766      1.00       1.0079
      43     1 O    8    3.008996   -1.620693    5.170452      6.00      15.9994
      44     2 H    1    3.854786   -1.802286    5.686635      1.00       1.0079
      45     2 H    1    3.170083   -0.818538    4.610243      1.00       1.0079
      46     1 O    8   -0.094349    1.863471   -6.686135      6.00      15.9994
      47     2 H    1    0.238983    1.055233   -6.317038      1.00       1.0079
      48     2 H    1   -0.053460    1.737047   -7.652783      1.00       1.0079
      49     1 O    8    1.380300   -3.081547    3.659847      6.00      15.9994
      50     2 H    1    2.005275   -2.679362    4.316923      1.00       1.0079
      51     2 H    1    1.097394   -3.966638    3.981340      1.00       1.0079
      52     1 O    8   -2.327913    2.806079    2.234742      6.00      15.9994
      53     2 H    1   -1.623045    2.131523    2.186616      1.00       1.0079
      54     2 H    1   -2.760923    2.581957    3.088951      1.00       1.0079
      55     1 O    8    0.874513   -0.661119   -5.600405      6.00      15.9994
      56     2 H    1    1.720402   -0.818966   -6.109861      1.00       1.0079
      57     2 H    1    1.196412   -0.240506   -4.754906      1.00       1.0079
      58     1 O    8   -1.186646   -0.716403    0.243785      6.00      15.9994
      59     2 H    1   -1.134001    0.232571   -0.072616      1.00       1.0079
      60     2 H    1   -0.933544   -0.785478    1.201134      1.00       1.0079
      61     1 O    8   -3.886194   -9.012929   -3.131857      6.00      15.9994
      62     2 H    1   -4.498349   -8.280126   -3.216022      1.00       1.0079
      63     2 H    1   -2.918386   -8.730140   -3.122451      1.00       1.0079
      64     1 O    8    4.978441    4.557411    2.160598      6.00      15.9994
      65     2 H    1    4.574251    4.069025    1.437504      1.00       1.0079
      66     2 H    1    4.210678    4.907944    2.673609      1.00       1.0079
      67     1 O    8    4.207481    1.029475   -3.213494      6.00      15.9994
      68     2 H    1    4.625087    0.852431   -4.064867      1.00       1.0079
      69     2 H    1    4.422152    0.192039   -2.736436      1.00       1.0079
      70     1 O    8   -5.210635   -6.346370   -2.680646      6.00      15.9994
      71     2 H    1   -5.380163   -6.086183   -1.773761      1.00       1.0079
      72     2 H    1   -5.998555   -6.089431   -3.152188      1.00       1.0079
      73     1 O    8    4.827201   -2.149309    0.695756      6.00      15.9994
      74     2 H    1    5.169811   -1.384311    1.168073      1.00       1.0079
      75     2 H    1    3.873140   -2.015277    0.790152      1.00       1.0079
      76     1 O    8    2.108497    0.940656    1.696470      6.00      15.9994
      77     2 H    1    2.763570    1.510652    1.258248      1.00       1.0079
      78     2 H    1    2.313842    0.079150    1.294322      1.00       1.0079
      79     1 O    8   -5.757905   -5.093599   -0.361373      6.00      15.9994
      80     2 H    1   -6.692202   -5.443891   -0.243446      1.00       1.0079
      81     2 H    1   -5.933954   -4.185226   -0.689323      1.00       1.0079
      82     1 O    8   -4.850118    4.634751    2.632366      6.00      15.9994
      83     2 H    1   -5.818692    4.729150    2.364808      1.00       1.0079
      84     2 H    1   -4.768696    3.668506    2.248911      1.00       1.0079
      85     1 O    8    5.512389    0.852383   -5.592791      6.00      15.9994
      86     2 H    1    6.400927    1.196167   -5.345498      1.00       1.0079
      87     2 H    1    5.032627    1.457110   -6.282087      1.00       1.0079
      88     1 O    8    0.736518   -1.917695   -1.272458      6.00      15.9994
      89     2 H    1    0.436663   -2.668596   -1.845250      1.00       1.0079
      90     2 H    1   -0.028072   -1.634696   -0.732364      1.00       1.0079
      91     1 O    8    3.900594    2.622197    0.082498      6.00      15.9994
      92     2 H    1    4.660363    2.413641   -0.488502      1.00       1.0079
      93     2 H    1    3.361931    3.246591   -0.459951      1.00       1.0079
      94     1 O    8   -1.099162   -1.369341    2.949888      6.00      15.9994
      95     2 H    1   -0.335406   -2.036901    3.107502      1.00       1.0079
      96     2 H    1   -1.847346   -1.991636    3.203214      1.00       1.0079
      97     1 O    8    2.071845   -5.650168    1.362908      6.00      15.9994
      98     2 H    1    1.204362   -6.136982    1.256069      1.00       1.0079
      99     2 H    1    2.450750   -5.885909    2.255821      1.00       1.0079
     100     1 O    8   -0.628031   -3.827349   -2.846086      6.00      15.9994
     101     2 H    1   -1.558364   -3.776964   -2.581114      1.00       1.0079
     102     2 H    1   -0.511229   -4.587952   -3.398223      1.00       1.0079
     103     1 O    8   -5.291843    2.062167    1.435301      6.00      15.9994
     104     2 H    1   -4.454945    1.877605    1.901455      1.00       1.0079
     105     2 H    1   -5.133594    1.919821    0.419723      1.00       1.0079
     106     1 O    8    1.959972   -3.424563   -5.267360      6.00      15.9994
     107     2 H    1    1.322556   -4.212309   -5.038883      1.00       1.0079
     108     2 H    1    1.299929   -2.771147   -5.498678      1.00       1.0079
     109     1 O    8   -1.193321    3.936851   -3.373747      6.00      15.9994
     110     2 H    1   -1.200301    3.980365   -4.358294      1.00       1.0079
     111     2 H    1   -0.740251    4.650096   -2.940559      1.00       1.0079
     112     1 O    8   -5.424398   -5.002981    4.278463      6.00      15.9994
     113     2 H    1   -6.116403   -4.512700    3.781732      1.00       1.0079
     114     2 H    1   -4.740320   -5.349861    3.692094      1.00       1.0079
     115     1 O    8    2.973298    5.793755    3.604183      6.00      15.9994
     116     2 H    1    3.417671    6.472671    4.169501      1.00       1.0079
     117     2 H    1    2.448520    5.204109    4.225087      1.00       1.0079
     118     1 O    8   -4.051130    1.544593   -5.062650      6.00      15.9994
     119     2 H    1   -3.538710    0.797484   -4.621055      1.00       1.0079
     120     2 H    1   -4.033382    2.351849   -4.430137      1.00       1.0079
     121     1 O    8    3.484773    0.599769    4.009149      6.00      15.9994
     122     2 H    1    2.789650    0.537511    3.268667      1.00       1.0079
     123     2 H    1    4.318998    0.415332    3.439528      1.00       1.0079
     124     1 O    8   -4.620748   -1.011762    4.004895      6.00      15.9994
     125     2 H    1   -5.347759   -1.244306    4.625324      1.00       1.0079
     126     2 H    1   -4.216388   -1.884479    3.842806      1.00       1.0079
     127     1 O    8   -0.216539    1.275147    3.116717      6.00      15.9994
     128     2 H    1    0.637178    1.413680    2.728697      1.00       1.0079
     129     2 H    1   -0.389412    0.322584    3.050879      1.00       1.0079
     130     1 O    8   -1.991535    5.069708    0.600019      6.00      15.9994
     131     2 H    1   -2.337650    4.234088    1.001390      1.00       1.0079
     132     2 H    1   -2.652025    5.747116    0.850662      1.00       1.0079
     133     1 O    8   -1.307547   -1.895612   -4.954292      6.00      15.9994
     134     2 H    1   -0.870125   -2.402819   -4.256374      1.00       1.0079
     135     2 H    1   -0.594969   -1.353212   -5.453243      1.00       1.0079
     136     1 O    8   -5.137345    1.806207   -1.286768      6.00      15.9994
     137     2 H    1   -4.698159    2.459748   -1.850567      1.00       1.0079
     138     2 H    1   -5.424553    1.125693   -1.863395      1.00       1.0079
     139     1 O    8   -7.383656   -1.211987   -1.950660      6.00      15.9994
     140     2 H    1   -6.421288   -1.037143   -2.146380      1.00       1.0079
     141     2 H    1   -7.480878   -1.531048   -1.033948      1.00       1.0079
     142     1 O    8   -0.463945    1.404847   -1.722864      6.00      15.9994
     143     2 H    1   -0.786735    2.186650   -2.196230      1.00       1.0079
     144     2 H    1    0.274393    0.986416   -2.221585      1.00       1.0079
     145     1 O    8   -0.029811   -6.521092   -1.093364      6.00      15.9994
     146     2 H    1    0.002142   -5.531145   -1.122665      1.00       1.0079
     147     2 H    1   -0.803113   -6.743514   -0.464856      1.00       1.0079
     148     1 O    8    5.709094   -1.692709    6.018549      6.00      15.9994
     149     2 H    1    6.022772   -2.510238    6.419541      1.00       1.0079
     150     2 H    1    5.679350   -0.901240    6.652196      1.00       1.0079
     151     1 O    8   -2.596298   -5.768397   -4.219577      6.00      15.9994
     152     2 H    1   -2.604903   -6.707767   -4.472834      1.00       1.0079
     153     2 H    1   -3.435454   -5.564584   -3.848351      1.00       1.0079
     154     1 O    8   -4.944969   -1.408672   -3.247339      6.00      15.9994
     155     2 H    1   -4.891302   -2.221732   -3.767422      1.00       1.0079
     156     2 H    1   -3.968955   -1.096486   -3.234198      1.00       1.0079
     157     1 O    8    2.298375   -8.080949   -1.213241      6.00      15.9994
     158     2 H    1    1.300368   -8.063628   -1.114392      1.00       1.0079
     159     2 H    1    2.516194   -7.105367   -1.176852      1.00       1.0079
     160     1 O    8    6.775436   -3.896533   -5.335926      6.00      15.9994
     161     2 H    1    7.549942   -4.100300   -5.821362      1.00       1.0079
     162     2 H    1    6.043016   -4.432815   -5.647961      1.00       1.0079
     163     1 O    8   -0.342484    4.965811    2.950829      6.00      15.9994
     164     2 H    1   -0.641824    4.167256    3.471638      1.00       1.0079
     165     2 H    1   -0.675974    4.869938    2.055138      1.00       1.0079
     166     1 O    8   -2.805629   -4.004823    6.223906      6.00      15.9994
     167     2 H    1   -2.385060   -4.632289    6.845556      1.00       1.0079
     168     2 H    1   -2.379735   -3.149823    6.433016      1.00       1.0079
     169     1 O    8   -2.792511   -3.473224    3.461233      6.00      15.9994
     170     2 H    1   -3.112954   -3.862064    4.274613      1.00       1.0079
     171     2 H    1   -3.285609   -4.027145    2.827441      1.00       1.0079
     172     1 O    8    2.486771    4.680362   -3.951121      6.00      15.9994
     173     2 H    1    3.397137    4.508164   -3.629816      1.00       1.0079
     174     2 H    1    1.979071    4.624068   -3.115244      1.00       1.0079
     175     1 O    8    1.659077    0.052314   -3.106919      6.00      15.9994
     176     2 H    1    1.511356   -0.599677   -2.356369      1.00       1.0079
     177     2 H    1    2.506872    0.526419   -3.066152      1.00       1.0079
     178     1 O    8   -1.202305   -8.160348   -6.367070      6.00      15.9994
     179     2 H    1   -0.905516   -9.069055   -6.570527      1.00       1.0079
     180     2 H    1   -2.179810   -8.074002   -6.546491      1.00       1.0079
     181     1 O    8   -0.476107    8.385162    0.598747      6.00      15.9994
     182     2 H    1    0.363244    8.309655    1.105835      1.00       1.0079
     183     2 H    1   -1.285239    8.075385    1.058726      1.00       1.0079
     184     1 O    8    5.906545   -6.798977   -6.600440      6.00      15.9994
     185     2 H    1    5.413015   -7.623317   -6.913788      1.00       1.0079
     186     2 H    1    6.217751   -6.234454   -7.319872      1.00       1.0079
     187     1 O    8   -0.359433   -5.262244    4.670430      6.00      15.9994
     188     2 H    1   -0.415613   -6.098882    4.136748      1.00       1.0079
     189     2 H    1   -1.293113   -5.154797    4.949758      1.00       1.0079
     190     1 O    8   -3.827313   -5.527924    1.763366      6.00      15.9994
     191     2 H    1   -4.138854   -6.362200    2.151380      1.00       1.0079
     192     2 H    1   -4.395567   -5.321694    1.040595      1.00       1.0079




 SCF PARAMETERS         Density guess:                                   RESTART
                        --------------------------------------------------------
                        max_scf:                                              30
                        max_scf_history:                                       0
                        max_diis:                                              4
                        --------------------------------------------------------
                        eps_scf:                                        1.00E-06
                        eps_scf_history:                                0.00E+00
                        eps_diis:                                       1.00E-01
                        eps_eigval:                                     1.00E-05
                        --------------------------------------------------------
                        level_shift [a.u.]:                                 0.00
                        --------------------------------------------------------
                        Outer loop SCF in use 
                        No variables optimised in outer loop
                        eps_scf                                         1.00E-06
                        max_scf                                               10
                        No outer loop optimization
                        step_size                                       5.00E-01

 PW_GRID| Information for grid number                                          1
 PW_GRID| Grid distributed over                                    64 processors
 PW_GRID| Real space group dimensions                                    64    1
 PW_GRID| the grid is blocked:                                                NO
 PW_GRID| Cutoff [a.u.]                                                    200.0
 PW_GRID| spherical cutoff:                                                   NO
 PW_GRID|   Bounds   1            -75      74                Points:         150
 PW_GRID|   Bounds   2            -75      74                Points:         150
 PW_GRID|   Bounds   3            -75      74                Points:         150
 PW_GRID| Volume element (a.u.^3)  0.3831E-02     Volume (a.u.^3)     12928.8946
 PW_GRID| Grid span                                                    FULLSPACE
 PW_GRID|   Distribution                         Average         Max         Min
 PW_GRID|   G-Vectors                            52734.4       52800       52650
 PW_GRID|   G-Rays                                 351.6         352         351
 PW_GRID|   Real Space Points                    52734.4       67500       45000

 PW_GRID| Information for grid number                                          2
 PW_GRID| Grid distributed over                                    64 processors
 PW_GRID| Real space group dimensions                                    64    1
 PW_GRID| the grid is blocked:                                                NO
 PW_GRID| Cutoff [a.u.]                                                     66.7
 PW_GRID| spherical cutoff:                                                   NO
 PW_GRID|   Bounds   1            -45      44                Points:          90
 PW_GRID|   Bounds   2            -45      44                Points:          90
 PW_GRID|   Bounds   3            -45      44                Points:          90
 PW_GRID| Volume element (a.u.^3)  0.1774E-01     Volume (a.u.^3)     12928.8946
 PW_GRID| Grid span                                                    FULLSPACE
 PW_GRID|   Distribution                         Average         Max         Min
 PW_GRID|   G-Vectors                            11390.6       11430       11340
 PW_GRID|   G-Rays                                 126.6         127         126
 PW_GRID|   Real Space Points                    11390.6       16200        8100

 PW_GRID| Information for grid number                                          3
 PW_GRID| Grid distributed over                                    64 processors
 PW_GRID| Real space group dimensions                                     8    8
 PW_GRID| the grid is blocked:                                                NO
 PW_GRID| Cutoff [a.u.]                                                     22.2
 PW_GRID| spherical cutoff:                                                   NO
 PW_GRID|   Bounds   1            -27      26                Points:          54
 PW_GRID|   Bounds   2            -27      26                Points:          54
 PW_GRID|   Bounds   3            -27      26                Points:          54
 PW_GRID| Volume element (a.u.^3)  0.8211E-01     Volume (a.u.^3)     12928.8946
 PW_GRID| Grid span                                                    FULLSPACE
 PW_GRID|   Distribution                         Average         Max         Min
 PW_GRID|   G-Vectors                             2460.4        2592        2322
 PW_GRID|   G-Rays                                  45.6          48          43
 PW_GRID|   Real Space Points                     2460.4        2646        1944

 PW_GRID| Information for grid number                                          4
 PW_GRID| Grid distributed over                                    64 processors
 PW_GRID| Real space group dimensions                                     8    8
 PW_GRID| the grid is blocked:                                                NO
 PW_GRID| Cutoff [a.u.]                                                      7.4
 PW_GRID| spherical cutoff:                                                   NO
 PW_GRID|   Bounds   1            -15      14                Points:          30
 PW_GRID|   Bounds   2            -15      14                Points:          30
 PW_GRID|   Bounds   3            -15      14                Points:          30
 PW_GRID| Volume element (a.u.^3)  0.4788         Volume (a.u.^3)     12928.8946
 PW_GRID| Grid span                                                    FULLSPACE
 PW_GRID|   Distribution                         Average         Max         Min
 PW_GRID|   G-Vectors                              421.9         480         390
 PW_GRID|   G-Rays                                  14.1          16          13
 PW_GRID|   Real Space Points                      421.9         480         270

 POISSON| Solver                                                        PERIODIC
 POISSON| Periodicity                                                        XYZ

 RS_GRID| Information for grid number                                          1
 RS_GRID|   Bounds   1            -75      74                Points:         150
 RS_GRID|   Bounds   2            -75      74                Points:         150
 RS_GRID|   Bounds   3            -75      74                Points:         150
 RS_GRID| Real space distribution over                                  4 groups
 RS_GRID| Real space distribution along direction                              1
 RS_GRID| Border size                                                         19
 RS_GRID| Real space distribution over                                  4 groups
 RS_GRID| Real space distribution along direction                              2
 RS_GRID| Border size                                                         19
 RS_GRID| Real space distribution over                                  4 groups
 RS_GRID| Real space distribution along direction                              3
 RS_GRID| Border size                                                         19
 RS_GRID|   Distribution                         Average         Max         Min
 RS_GRID|   Planes                                  75.5          76          75
 RS_GRID|   Distribution                         Average         Max         Min
 RS_GRID|   Planes                                  75.5          76          75
 RS_GRID|   Distribution                         Average         Max         Min
 RS_GRID|   Planes                                  75.5          76          75

 RS_GRID| Information for grid number                                          2
 RS_GRID|   Bounds   1            -45      44                Points:          90
 RS_GRID|   Bounds   2            -45      44                Points:          90
 RS_GRID|   Bounds   3            -45      44                Points:          90
 RS_GRID| Real space distribution over                                  4 groups
 RS_GRID| Real space distribution along direction                              1
 RS_GRID| Border size                                                         20
 RS_GRID| Real space distribution over                                  4 groups
 RS_GRID| Real space distribution along direction                              2
 RS_GRID| Border size                                                         20
 RS_GRID| Real space distribution over                                  4 groups
 RS_GRID| Real space distribution along direction                              3
 RS_GRID| Border size                                                         20
 RS_GRID|   Distribution                         Average         Max         Min
 RS_GRID|   Planes                                  62.5          63          62
 RS_GRID|   Distribution                         Average         Max         Min
 RS_GRID|   Planes                                  62.5          63          62
 RS_GRID|   Distribution                         Average         Max         Min
 RS_GRID|   Planes                                  62.5          63          62

 RS_GRID| Information for grid number                                          3
 RS_GRID|   Bounds   1            -27      26                Points:          54
 RS_GRID|   Bounds   2            -27      26                Points:          54
 RS_GRID|   Bounds   3            -27      26                Points:          54
 RS_GRID| Real space fully replicated
 RS_GRID| Group size                                                           1

 RS_GRID| Information for grid number                                          4
 RS_GRID|   Bounds   1            -15      14                Points:          30
 RS_GRID|   Bounds   2            -15      14                Points:          30
 RS_GRID|   Bounds   3            -15      14                Points:          30
 RS_GRID| Real space fully replicated
 RS_GRID| Group size                                                           1

 DISTRIBUTION OF THE PARTICLES (ROWS)
              Process row      Number of particles         Number of matrix rows
                        0                       24                            -1
                        1                       24                            -1
                        2                       24                            -1
                        3                       24                            -1
                        4                       24                            -1
                        5                       24                            -1
                        6                       24                            -1
                        7                       24                            -1
                      Sum                      192                            -1

 DISTRIBUTION OF THE PARTICLES (COLUMNS)
              Process col      Number of particles      Number of matrix columns
                        0                       24                            -1
                        1                       24                            -1
                        2                       24                            -1
                        3                       24                            -1
                        4                       24                            -1
                        5                       24                            -1
                        6                       24                            -1
                        7                       24                            -1
                      Sum                      192                            -1

  HFX_INFO| Replica ID:                                                        1
  HFX_INFO| EPS_SCHWARZ:                                                 1.0E-06
  HFX_INFO| EPS_SCHWARZ_FORCES                                           1.0E-06
  HFX_INFO| EPS_STORAGE_SCALING:                                         1.0E-01
  HFX_INFO| NBINS:                                                            64
  HFX_INFO| BLOCK_SIZE:                                                        3
  HFX_INFO| FRACTION:                                               0.9900000000
  HFX_INFO| Interaction Potential:                                     TRUNCATED
  HFX_INFO| Cutoff Radius [angstrom]:                               6.0000000000
  HFX_INFO| NUMBER_OF_SHELLS:                                               AUTO
  HFX_INFO| Number of periodic shells considered:                             -1
  HFX_INFO| Number of periodic cells considered:                              27


 DISTRIBUTION OF THE NEIGHBOR LISTS
              Total number of particle pairs:                              21379
              Total number of matrix elements:                           1231147
              Average number of particle pairs:                              335
              Maximum number of particle pairs:                              370
              Average number of matrix element:                            19237
              Maximum number of matrix elements:                           21624


 DISTRIBUTION OF THE OVERLAP MATRIX
              Number  of non-zero blocks:                                  16652
              Percentage non-zero blocks:                                  89.87
              Average number of blocks per CPU:                              261
              Maximum number of blocks per CPU:                              279
              Average number of matrix elements per CPU:                   15194
              Maximum number of matrix elements per CPU:                   16625

 Number of electrons:                                                        512
 Number of occupied orbitals:                                                256
 Number of molecular orbitals:                                               256

 Number of orbital functions:                                               1472
 Number of independent orbital functions:                                   1472

 Extrapolation method: initial_guess


 SCF WAVEFUNCTION OPTIMIZATION

  ----------------------------------- OT ---------------------------------------

  Allowing for rotations:  F
  Optimizing orbital energies:  F
  Minimizer      : DIIS                : direct inversion
                                         in the iterative subspace
                            using      : -   7 DIIS vectors
                                         - safer DIIS on
  Preconditioner : FULL_SINGLE_INVERSE : inversion of H + eS - 2*(Sc)(c^T*H*c+const)(Sc)^T
  Precond_solver : DEFAULT
  stepsize       :    0.08000000
  energy_gap     :    0.08000000

  eps_taylor     :   0.10000E-15
  max_taylor     :             4

  mixed_precision    : F

  ----------------------------------- OT ---------------------------------------

  Step     Update method      Time    Convergence         Total energy    Change
  ------------------------------------------------------------------------------

  Trace(PS):                                  512.0000000000
  Electronic density on regular grids:       -511.9999999886        0.0000000114
  Core density on regular grids:              511.9999999836       -0.0000000164
  Total charge density on r-space grids:       -0.0000000051
  Total charge density g-space grids:          -0.0000000051


  HFX_MEM_INFO| Est. max. program size before HFX [MB's]:                    153

 *** 12:08:52 WARNING in hfx_energy_potential:integrate_four_center :: The ***
 *** Kohn Sham matrix is not 100% occupied. This may result in uncorrect   ***
 *** Hartree-Fock results. Try to decrease EPS_PGF_ORB and                 ***
 *** EPS_FILTER_MATRIX in the QS section.                                  ***

  HFX_MEM_INFO| Number of cart. primitive ERI's calculated:          16091091976
  HFX_MEM_INFO| Number of sph. ERI's calculated:                      3464714451
  HFX_MEM_INFO| Number of sph. ERI's stored in-core:                  1148714899
  HFX_MEM_INFO| Number of sph. ERI's stored on disk:                           0
  HFX_MEM_INFO| Number of sph. ERI's calculated on the fly:                    0
  HFX_MEM_INFO| Total memory consumption ERI's RAM [MB's]:                  1110
  HFX_MEM_INFO| Whereof max-vals [MB's]:                                      62
  HFX_MEM_INFO| Total compression factor ERI's RAM:                         7.90
  HFX_MEM_INFO| Total memory consumption ERI's disk [MB's]:                    0
  HFX_MEM_INFO| Total compression factor ERI's disk:                        0.00
  HFX_MEM_INFO| Size of density/Fock matrix [MB's]:                           14
  HFX_MEM_INFO| Size of buffers [MB's]:                                        2
  HFX_MEM_INFO| Number of periodic image cells considered:                    27
  HFX_MEM_INFO| Est. max. program size after HFX  [MB's]:                    194

     1 OT DIIS     0.80E-01   16.2     0.00225773     -1100.9748424673 -1.10E+03

  Trace(PS):                                  512.0000000000
  Electronic density on regular grids:       -511.9999999887        0.0000000113
  Core density on regular grids:              511.9999999836       -0.0000000164
  Total charge density on r-space grids:       -0.0000000051
  Total charge density g-space grids:          -0.0000000051

     2 OT DIIS     0.80E-01    1.4     0.00166347     -1101.1081080733 -1.33E-01

  Trace(PS):                                  512.0000000000
  Electronic density on regular grids:       -511.9999999888        0.0000000112
  Core density on regular grids:              511.9999999836       -0.0000000164
  Total charge density on r-space grids:       -0.0000000052
  Total charge density g-space grids:          -0.0000000052

     3 OT DIIS     0.80E-01    1.4     0.00033992     -1101.2697011471 -1.62E-01

  Trace(PS):                                  512.0000000000
  Electronic density on regular grids:       -511.9999999888        0.0000000112
  Core density on regular grids:              511.9999999836       -0.0000000164
  Total charge density on r-space grids:       -0.0000000052
  Total charge density g-space grids:          -0.0000000052

     4 OT DIIS     0.80E-01    1.4     0.00011963     -1101.2763532928 -6.65E-03

  Trace(PS):                                  512.0000000000
  Electronic density on regular grids:       -511.9999999888        0.0000000112
  Core density on regular grids:              511.9999999836       -0.0000000164
  Total charge density on r-space grids:       -0.0000000052
  Total charge density g-space grids:          -0.0000000052

     5 OT DIIS     0.80E-01    1.4     0.00005580     -1101.2772090614 -8.56E-04

  Trace(PS):                                  512.0000000000
  Electronic density on regular grids:       -511.9999999888        0.0000000112
  Core density on regular grids:              511.9999999836       -0.0000000164
  Total charge density on r-space grids:       -0.0000000052
  Total charge density g-space grids:          -0.0000000052

     6 OT DIIS     0.80E-01    1.4     0.00002527     -1101.2774110248 -2.02E-04

  Trace(PS):                                  512.0000000000
  Electronic density on regular grids:       -511.9999999888        0.0000000112
  Core density on regular grids:              511.9999999836       -0.0000000164
  Total charge density on r-space grids:       -0.0000000052
  Total charge density g-space grids:          -0.0000000052

     7 OT DIIS     0.80E-01    1.4     0.00000904     -1101.2774480665 -3.70E-05

  Trace(PS):                                  512.0000000000
  Electronic density on regular grids:       -511.9999999888        0.0000000112
  Core density on regular grids:              511.9999999836       -0.0000000164
  Total charge density on r-space grids:       -0.0000000052
  Total charge density g-space grids:          -0.0000000052

     8 OT DIIS     0.80E-01    1.4     0.00000321     -1101.2774537533 -5.69E-06

  Trace(PS):                                  512.0000000000
  Electronic density on regular grids:       -511.9999999888        0.0000000112
  Core density on regular grids:              511.9999999836       -0.0000000164
  Total charge density on r-space grids:       -0.0000000052
  Total charge density g-space grids:          -0.0000000052

     9 OT DIIS     0.80E-01    1.4     0.00000135     -1101.2774544037 -6.50E-07

  Trace(PS):                                  512.0000000000
  Electronic density on regular grids:       -511.9999999888        0.0000000112
  Core density on regular grids:              511.9999999836       -0.0000000164
  Total charge density on r-space grids:       -0.0000000052
  Total charge density g-space grids:          -0.0000000052

    10 OT DIIS     0.80E-01    1.4     0.00000068     -1101.2774544864 -8.28E-08

  *** SCF run converged in    10 steps ***


  Electronic density on regular grids:       -511.9999999888        0.0000000112
  Core density on regular grids:              511.9999999836       -0.0000000164
  Total charge density on r-space grids:       -0.0000000052
  Total charge density g-space grids:          -0.0000000052

  Overlap energy of the core charge distribution:               0.00000237129466
  Self energy of the core charge distribution:              -2838.21791979121008
  Core Hamiltonian energy:                                    827.95916166564825
  Hartree energy:                                            1181.03428811309800
  Exchange-correlation energy:                                -21.28684387741711
  Hartree-Fock Exchange energy:                              -250.51977597971074
  Dispersion energy:                                           -0.24636698815184

  Total energy:                                             -1101.27745448644873

  outer SCF iter =    1 RMS gradient =   0.68E-06 energy =      -1101.2774544864
  outer SCF loop converged in   1 iterations or   10 steps



 MULLIKEN POPULATION ANALYSIS

 #  Atom  Element  Kind  Atomic population                Net charge
       1     O        1          6.654371                 -0.654371
       2     H        2          0.689396                  0.310604
       3     H        2          0.657090                  0.342910
       4     O        1          6.634960                 -0.634960
       5     H        2          0.707258                  0.292742
       6     H        2          0.635112                  0.364888
       7     O        1          6.632477                 -0.632477
       8     H        2          0.649794                  0.350206
       9     H        2          0.714473                  0.285527
      10     O        1          6.654891                 -0.654891
      11     H        2          0.708747                  0.291253
      12     H        2          0.672868                  0.327132
      13     O        1          6.650528                 -0.650528
      14     H        2          0.660371                  0.339629
      15     H        2          0.695292                  0.304708
      16     O        1          6.766343                 -0.766343
      17     H        2          0.621207                  0.378793
      18     H        2          0.619621                  0.380379
      19     O        1          6.645399                 -0.645399
      20     H        2          0.622404                  0.377596
      21     H        2          0.726128                  0.273872
      22     O        1          6.571310                 -0.571310
      23     H        2          0.731317                  0.268683
      24     H        2          0.695105                  0.304895
      25     O        1          6.626668                 -0.626668
      26     H        2          0.717161                  0.282839
      27     H        2          0.644930                  0.355070
      28     O        1          6.655911                 -0.655911
      29     H        2          0.688097                  0.311903
      30     H        2          0.667220                  0.332780
      31     O        1          6.593260                 -0.593260
      32     H        2          0.682293                  0.317707
      33     H        2          0.727425                  0.272575
      34     O        1          6.755129                 -0.755129
      35     H        2          0.658986                  0.341014
      36     H        2          0.596657                  0.403343
      37     O        1          6.648505                 -0.648505
      38     H        2          0.667698                  0.332302
      39     H        2          0.660801                  0.339199
      40     O        1          6.565495                 -0.565495
      41     H        2          0.670676                  0.329324
      42     H        2          0.758549                  0.241451
      43     O        1          6.760691                 -0.760691
      44     H        2          0.630723                  0.369277
      45     H        2          0.638650                  0.361350
      46     O        1          6.659335                 -0.659335
      47     H        2          0.690735                  0.309265
      48     H        2          0.654789                  0.345211
      49     O        1          6.693504                 -0.693504
      50     H        2          0.627796                  0.372204
      51     H        2          0.677854                  0.322146
      52     O        1          6.675575                 -0.675575
      53     H        2          0.687058                  0.312942
      54     H        2          0.654472                  0.345528
      55     O        1          6.743203                 -0.743203
      56     H        2          0.647564                  0.352436
      57     H        2          0.616008                  0.383992
      58     O        1          6.669838                 -0.669838
      59     H        2          0.670902                  0.329098
      60     H        2          0.654069                  0.345931
      61     O        1          6.724347                 -0.724347
      62     H        2          0.657703                  0.342297
      63     H        2          0.613377                  0.386623
      64     O        1          6.641975                 -0.641975
      65     H        2          0.700804                  0.299196
      66     H        2          0.663069                  0.336931
      67     O        1          6.701810                 -0.701810
      68     H        2          0.657799                  0.342201
      69     H        2          0.647754                  0.352246
      70     O        1          6.603622                 -0.603622
      71     H        2          0.678007                  0.321993
      72     H        2          0.725945                  0.274055
      73     O        1          6.662735                 -0.662735
      74     H        2          0.659454                  0.340546
      75     H        2          0.676164                  0.323836
      76     O        1          6.631512                 -0.631512
      77     H        2          0.662711                  0.337289
      78     H        2          0.687094                  0.312906
      79     O        1          6.662926                 -0.662926
      80     H        2          0.629054                  0.370946
      81     H        2          0.714549                  0.285451
      82     O        1          6.742981                 -0.742981
      83     H        2          0.603639                  0.396361
      84     H        2          0.645331                  0.354669
      85     O        1          6.767688                 -0.767688
      86     H        2          0.644244                  0.355756
      87     H        2          0.575199                  0.424801
      88     O        1          6.721030                 -0.721030
      89     H        2          0.616187                  0.383813
      90     H        2          0.644894                  0.355106
      91     O        1          6.640829                 -0.640829
      92     H        2          0.728946                  0.271054
      93     H        2          0.623379                  0.376621
      94     O        1          6.717451                 -0.717451
      95     H        2          0.663650                  0.336350
      96     H        2          0.616965                  0.383035
      97     O        1          6.699004                 -0.699004
      98     H        2          0.698263                  0.301737
      99     H        2          0.599325                  0.400675
     100     O        1          6.638915                 -0.638915
     101     H        2          0.672441                  0.327559
     102     H        2          0.680749                  0.319251
     103     O        1          6.690537                 -0.690537
     104     H        2          0.706269                  0.293731
     105     H        2          0.591104                  0.408896
     106     O        1          6.645072                 -0.645072
     107     H        2          0.662655                  0.337345
     108     H        2          0.727225                  0.272775
     109     O        1          6.674439                 -0.674439
     110     H        2          0.655420                  0.344580
     111     H        2          0.675394                  0.324606
     112     O        1          6.645390                 -0.645390
     113     H        2          0.644300                  0.355700
     114     H        2          0.723072                  0.276928
     115     O        1          6.723909                 -0.723909
     116     H        2          0.652765                  0.347235
     117     H        2          0.633887                  0.366113
     118     O        1          6.735296                 -0.735296
     119     H        2          0.646940                  0.353060
     120     H        2          0.627733                  0.372267
     121     O        1          6.659232                 -0.659232
     122     H        2          0.686285                  0.313715
     123     H        2          0.650739                  0.349261
     124     O        1          6.613683                 -0.613683
     125     H        2          0.665898                  0.334102
     126     H        2          0.718074                  0.281926
     127     O        1          6.669158                 -0.669158
     128     H        2          0.659875                  0.340125
     129     H        2          0.646375                  0.353625
     130     O        1          6.684642                 -0.684642
     131     H        2          0.650345                  0.349655
     132     H        2          0.675283                  0.324717
     133     O        1          6.707278                 -0.707278
     134     H        2          0.698440                  0.301560
     135     H        2          0.589138                  0.410862
     136     O        1          6.617764                 -0.617764
     137     H        2          0.646561                  0.353439
     138     H        2          0.738950                  0.261050
     139     O        1          6.689138                 -0.689138
     140     H        2          0.660664                  0.339336
     141     H        2          0.651229                  0.348771
     142     O        1          6.631863                 -0.631863
     143     H        2          0.688604                  0.311396
     144     H        2          0.678040                  0.321960
     145     O        1          6.705292                 -0.705292
     146     H        2          0.673143                  0.326857
     147     H        2          0.608812                  0.391188
     148     O        1          6.709894                 -0.709894
     149     H        2          0.664124                  0.335876
     150     H        2          0.636862                  0.363138
     151     O        1          6.577536                 -0.577536
     152     H        2          0.720853                  0.279147
     153     H        2          0.700244                  0.299756
     154     O        1          6.640680                 -0.640680
     155     H        2          0.708106                  0.291894
     156     H        2          0.641650                  0.358350
     157     O        1          6.655759                 -0.655759
     158     H        2          0.668471                  0.331529
     159     H        2          0.676169                  0.323831
     160     O        1          6.587081                 -0.587081
     161     H        2          0.676407                  0.323593
     162     H        2          0.708603                  0.291397
     163     O        1          6.618666                 -0.618666
     164     H        2          0.699598                  0.300402
     165     H        2          0.699483                  0.300517
     166     O        1          6.663143                 -0.663143
     167     H        2          0.677971                  0.322029
     168     H        2          0.663951                  0.336049
     169     O        1          6.614013                 -0.614013
     170     H        2          0.693632                  0.306368
     171     H        2          0.681983                  0.318017
     172     O        1          6.662894                 -0.662894
     173     H        2          0.643462                  0.356538
     174     H        2          0.711430                  0.288570
     175     O        1          6.737475                 -0.737475
     176     H        2          0.629144                  0.370856
     177     H        2          0.633505                  0.366495
     178     O        1          6.683669                 -0.683669
     179     H        2          0.653375                  0.346625
     180     H        2          0.633508                  0.366492
     181     O        1          6.596827                 -0.596827
     182     H        2          0.702854                  0.297146
     183     H        2          0.705176                  0.294824
     184     O        1          6.683620                 -0.683620
     185     H        2          0.660586                  0.339414
     186     H        2          0.664807                  0.335193
     187     O        1          6.635666                 -0.635666
     188     H        2          0.642005                  0.357995
     189     H        2          0.722045                  0.277955
     190     O        1          6.690445                 -0.690445
     191     H        2          0.645360                  0.354640
     192     H        2          0.653145                  0.346855
 # Total charge                512.000000                 -0.000000


 !-----------------------------------------------------------------------------!
                           Hirschfeld Charges

  #Atom  Element  Kind  Ref Charge     Population                     Net charge
      1       O      1       6.000          6.553                         -0.553
      2       H      2       1.000          0.714                          0.286
      3       H      2       1.000          0.732                          0.268
      4       O      1       6.000          6.532                         -0.532
      5       H      2       1.000          0.726                          0.274
      6       H      2       1.000          0.709                          0.291
      7       O      1       6.000          6.517                         -0.517
      8       H      2       1.000          0.735                          0.265
      9       H      2       1.000          0.719                          0.281
     10       O      1       6.000          6.508                         -0.508
     11       H      2       1.000          0.733                          0.267
     12       H      2       1.000          0.734                          0.266
     13       O      1       6.000          6.538                         -0.538
     14       H      2       1.000          0.719                          0.281
     15       H      2       1.000          0.721                          0.279
     16       O      1       6.000          6.553                         -0.553
     17       H      2       1.000          0.720                          0.280
     18       H      2       1.000          0.741                          0.259
     19       O      1       6.000          6.544                         -0.544
     20       H      2       1.000          0.740                          0.260
     21       H      2       1.000          0.731                          0.269
     22       O      1       6.000          6.545                         -0.545
     23       H      2       1.000          0.718                          0.282
     24       H      2       1.000          0.727                          0.273
     25       O      1       6.000          6.543                         -0.543
     26       H      2       1.000          0.730                          0.270
     27       H      2       1.000          0.729                          0.271
     28       O      1       6.000          6.536                         -0.536
     29       H      2       1.000          0.733                          0.267
     30       H      2       1.000          0.723                          0.277
     31       O      1       6.000          6.596                         -0.596
     32       H      2       1.000          0.716                          0.284
     33       H      2       1.000          0.744                          0.256
     34       O      1       6.000          6.565                         -0.565
     35       H      2       1.000          0.727                          0.273
     36       H      2       1.000          0.734                          0.266
     37       O      1       6.000          6.529                         -0.529
     38       H      2       1.000          0.727                          0.273
     39       H      2       1.000          0.723                          0.277
     40       O      1       6.000          6.535                         -0.535
     41       H      2       1.000          0.730                          0.270
     42       H      2       1.000          0.724                          0.276
     43       O      1       6.000          6.542                         -0.542
     44       H      2       1.000          0.725                          0.275
     45       H      2       1.000          0.751                          0.249
     46       O      1       6.000          6.529                         -0.529
     47       H      2       1.000          0.739                          0.261
     48       H      2       1.000          0.740                          0.260
     49       O      1       6.000          6.578                         -0.578
     50       H      2       1.000          0.743                          0.257
     51       H      2       1.000          0.730                          0.270
     52       O      1       6.000          6.573                         -0.573
     53       H      2       1.000          0.736                          0.264
     54       H      2       1.000          0.744                          0.256
     55       O      1       6.000          6.517                         -0.517
     56       H      2       1.000          0.723                          0.277
     57       H      2       1.000          0.732                          0.268
     58       O      1       6.000          6.554                         -0.554
     59       H      2       1.000          0.715                          0.285
     60       H      2       1.000          0.734                          0.266
     61       O      1       6.000          6.505                         -0.505
     62       H      2       1.000          0.722                          0.278
     63       H      2       1.000          0.724                          0.276
     64       O      1       6.000          6.546                         -0.546
     65       H      2       1.000          0.735                          0.265
     66       H      2       1.000          0.737                          0.263
     67       O      1       6.000          6.539                         -0.539
     68       H      2       1.000          0.745                          0.255
     69       H      2       1.000          0.740                          0.260
     70       O      1       6.000          6.555                         -0.555
     71       H      2       1.000          0.743                          0.257
     72       H      2       1.000          0.716                          0.284
     73       O      1       6.000          6.516                         -0.516
     74       H      2       1.000          0.738                          0.262
     75       H      2       1.000          0.735                          0.265
     76       O      1       6.000          6.516                         -0.516
     77       H      2       1.000          0.726                          0.274
     78       H      2       1.000          0.728                          0.272
     79       O      1       6.000          6.521                         -0.521
     80       H      2       1.000          0.729                          0.271
     81       H      2       1.000          0.708                          0.292
     82       O      1       6.000          6.566                         -0.566
     83       H      2       1.000          0.739                          0.261
     84       H      2       1.000          0.721                          0.279
     85       O      1       6.000          6.530                         -0.530
     86       H      2       1.000          0.728                          0.272
     87       H      2       1.000          0.716                          0.284
     88       O      1       6.000          6.514                         -0.514
     89       H      2       1.000          0.722                          0.278
     90       H      2       1.000          0.736                          0.264
     91       O      1       6.000          6.544                         -0.544
     92       H      2       1.000          0.721                          0.279
     93       H      2       1.000          0.738                          0.262
     94       O      1       6.000          6.543                         -0.543
     95       H      2       1.000          0.721                          0.279
     96       H      2       1.000          0.725                          0.275
     97       O      1       6.000          6.546                         -0.546
     98       H      2       1.000          0.712                          0.288
     99       H      2       1.000          0.736                          0.264
    100       O      1       6.000          6.522                         -0.522
    101       H      2       1.000          0.727                          0.273
    102       H      2       1.000          0.726                          0.274
[...]

  Total Charge                                                            -0.000
 !-----------------------------------------------------------------------------!
  
  Eigenvalues of the occupied subspace spin            1
 ---------------------------------------------
      -1.30521163     -1.30127076     -1.29989384     -1.29717750
      -1.29543354     -1.29356879     -1.29242112     -1.29152394
      -1.29120976     -1.28859846     -1.28652192     -1.28545489
      -1.28365393     -1.28197308     -1.28143297     -1.28137840
      -1.27994971     -1.27887859     -1.27600021     -1.27569716
      -1.27483740     -1.27363429     -1.27161404     -1.27063470
      -1.27043934     -1.26918403     -1.26845679     -1.26767441
      -1.26669206     -1.26462680     -1.26383719     -1.26355591
      -1.26339838     -1.26264740     -1.26210156     -1.26096820
      -1.25999571     -1.25791989     -1.25733542     -1.25657896
      -1.25443441     -1.25425072     -1.25368705     -1.25336815
      -1.25160038     -1.25087244     -1.24925233     -1.24868641
      -1.24769519     -1.24694785     -1.24521477     -1.24378117
      -1.24055822     -1.23994361     -1.23887530     -1.23555738
      -1.23440633     -1.23253420     -1.23066594     -1.22721966
      -1.22714045     -1.22342669     -1.21525363     -1.20750746
      -0.67343310     -0.66821233     -0.66498425     -0.66260776
      -0.66186070     -0.66071347     -0.65991309     -0.65927003
      -0.65602070     -0.65526510     -0.65383427     -0.65219789
      -0.65175938     -0.65028229     -0.64950319     -0.64679690
      -0.64591153     -0.64490656     -0.64387430     -0.64281754
      -0.64166517     -0.64083069     -0.64071802     -0.63898640
      -0.63684213     -0.63641614     -0.63563595     -0.63409656
      -0.63360936     -0.63285656     -0.63164102     -0.63033632
      -0.62944862     -0.62785224     -0.62683423     -0.62556857
      -0.62501356     -0.62457709     -0.62443650     -0.62420200
      -0.62327402     -0.62288155     -0.62219231     -0.62129685
      -0.61986631     -0.61927443     -0.61856619     -0.61635004
      -0.61598362     -0.61571525     -0.61428004     -0.61367811
      -0.61070945     -0.60953534     -0.60790027     -0.60399759
      -0.60283414     -0.59983586     -0.59714737     -0.59548589
      -0.59362697     -0.59064091     -0.58796993     -0.56834859
      -0.55838647     -0.55451846     -0.55016224     -0.54918394
      -0.54761294     -0.54465275     -0.54364518     -0.53932752
      -0.53886376     -0.53768473     -0.53682816     -0.53269838
      -0.52878480     -0.52816812     -0.52382083     -0.52151553
      -0.52099774     -0.52017790     -0.51928361     -0.51742542
      -0.51511246     -0.51264595     -0.50999257     -0.50806145
      -0.50772673     -0.50493670     -0.50346681     -0.50182814
      -0.49762821     -0.49692698     -0.49495906     -0.49277897
      -0.49157410     -0.49058773     -0.49027848     -0.48853025
      -0.48633665     -0.48573863     -0.48347188     -0.48244005
      -0.48050006     -0.47984385     -0.47798220     -0.47694684
      -0.47558490     -0.47432064     -0.47281777     -0.46897092
      -0.46865910     -0.46786901     -0.46596328     -0.46403753
      -0.46319564     -0.46200445     -0.46170929     -0.45972326
      -0.45530042     -0.45445848     -0.45340119     -0.45231197
      -0.45005170     -0.44853442     -0.44143032     -0.43554714
      -0.43380376     -0.43153149     -0.42908311     -0.42771007
      -0.42675407     -0.42635901     -0.42554955     -0.42479562
      -0.42421877     -0.42342651     -0.42290880     -0.42146894
      -0.41986447     -0.41943903     -0.41843944     -0.41839226
      -0.41814659     -0.41719166     -0.41632821     -0.41557593
      -0.41486998     -0.41469818     -0.41401694     -0.41364595
      -0.41324418     -0.41240213     -0.41213114     -0.41155803
      -0.41097607     -0.41052067     -0.40987530     -0.40971063
      -0.40894781     -0.40847803     -0.40804073     -0.40605701
      -0.40543380     -0.40423107     -0.40404960     -0.40361431
      -0.40251144     -0.40134983     -0.40116932     -0.40052908
      -0.39996169     -0.39915055     -0.39806833     -0.39756550
      -0.39718718     -0.39585044     -0.39558222     -0.39422911
      -0.39353911     -0.39230776     -0.39145053     -0.39113083
      -0.38838311     -0.38534870     -0.38456495     -0.38358991
      -0.38244870     -0.38179483     -0.37401001     -0.37283619
 Fermi Energy [eV] :  -10.145389
  
  Lowest Eigenvalues of the unoccupied subspace spin            1
 -----------------------------------------------------
  Reached convergence in          183  iterations 
       0.20034230      0.25047227      0.25882983      0.26207695
  
 HOMO - LUMO gap [eV] :   15.596980

 ENERGY| Total FORCE_EVAL ( QS ) energy (a.u.):            -1101.277454486448732


 -------------------------------------------------------------------------------
 -                                                                             -
 -                                DBCSR STATISTICS                             -
 -                                                                             -
 -------------------------------------------------------------------------------
 COUNTER                                      CPU                  ACC      ACC%
 number of processed stacks                322882                    0       0.0
 matmuls inhomo. stacks                         0                    0       0.0
 matmuls total                           22032450                    0       0.0
 flops   4 x    4 x    4                   115968                    0       0.0
 flops  36 x    4 x   36                   953856                    0       0.0
 flops  36 x    4 x   32                  5935104                    0       0.0
 flops  32 x    4 x   36                  5935104                    0       0.0
 flops   4 x    4 x  184                 16816128                    0       0.0
 flops  36 x   36 x  184                 19077120                    0       0.0
 flops 184 x    4 x    4                 25907200                    0       0.0
 flops  36 x    4 x  184                 39002112                    0       0.0
 flops 184 x    4 x   36                 39002112                    0       0.0
 flops  32 x    4 x   32                 39550976                    0       0.0
 flops   5 x   32 x   32                 94371840                    0       0.0
 flops  32 x   36 x  184                118702080                    0       0.0
 flops  36 x   32 x  184                118702080                    0       0.0
 flops  13 x   32 x   32                122683392                    0       0.0
 flops  32 x    4 x  184                257753088                    0       0.0
 flops 184 x    4 x   32                257753088                    0       0.0
 flops 184 x   36 x  184                780042240                    0       0.0
 flops   5 x    4 x    5               1107220800                    0       0.0
 flops   5 x    5 x   32               1162380800                    0       0.0
 flops  13 x    4 x    5               1416754560                    0       0.0
 flops   5 x    4 x   13               1416754560                    0       0.0
 flops  13 x    5 x   32               1473971200                    0       0.0
 flops   5 x   13 x   32               1479828480                    0       0.0
 flops 184 x    4 x  184               1594753024                    0       0.0
 flops  13 x    4 x   13               1801545408                    0       0.0
 flops  13 x   13 x   32               1915124224                    0       0.0
 flops  32 x   32 x   32               3254779904                    0       0.0
 flops   5 x   32 x    5               5714688000                    0       0.0
 flops  13 x   32 x    5               7312281600                    0       0.0
 flops   5 x   32 x   13               7312281600                    0       0.0
 flops 184 x   32 x   32               9261023232                    0       0.0
 flops  13 x   32 x   13               9298298880                    0       0.0
 flops  32 x   32 x  184               9336389632                    0       0.0
 flops 184 x   32 x  184              17056923648                    0       0.0
 flops total                          83857303040                    0       0.0
 marketing flops                      95913183232
 -------------------------------------------------------------------------------

 -------------------------------------------------------------------------------
 ----                             MULTIGRID INFO                            ----
 -------------------------------------------------------------------------------
 count for grid        1:          38071          cutoff [a.u.]          200.00
 count for grid        2:          57438          cutoff [a.u.]           66.67
 count for grid        3:          57763          cutoff [a.u.]           22.22
 count for grid        4:          11599          cutoff [a.u.]            7.41
 total gridlevel count  :         164871

 -------------------------------------------------------------------------------
 -                                                                             -
 -                         MESSAGE PASSING PERFORMANCE                         -
 -                                                                             -
 -------------------------------------------------------------------------------

 ROUTINE             CALLS  TOT TIME [s]  AVE VOLUME [Bytes]  PERFORMANCE [MB/s]
 MP_Group                5         0.000
 MP_Bcast             4032         0.034              66354.             7905.23
 MP_Allreduce         8916         2.319                153.                0.59
 MP_Gather               4         0.001               1792.                8.19
 MP_Sync               200         2.441
 MP_Alltoall          9606         3.923
 MP_ISendRecv         4032         0.009              49775.            22373.24
 MP_Wait            231922         2.358
 MP_comm_split         143         0.020
 MP_ISend           102946         0.153              29878.            20085.22
 MP_IRecv           102946         0.114              29704.            26735.25
 MP_Recv                 7         0.000             376832.             6170.57
 MP_Memory           66356        12.522
 -------------------------------------------------------------------------------


 -------------------------------------------------------------------------------
 -                                                                             -
 -                           R E F E R E N C E S                               -
 -                                                                             -
 -------------------------------------------------------------------------------
 
 CP2K version 2.6, the CP2K developers group (2014).
 CP2K is freely available from http://www.cp2k.org/ .

 Borstnik, U; VandeVondele, J; Weber, V; Hutter, J. 
 PARALLEL COMPUTING, 40 (5-6), 47-58 (2014). 
 Sparse matrix multiplication: The distributed block-compressed sparse
 row library.
 http://dx.doi.org/10.1016/j.parco.2014.03.012


 Hutter, J; Iannuzzi, M; Schiffmann, F; VandeVondele, J. 
 WILEY INTERDISCIPLINARY REVIEWS-COMPUTATIONAL MOLECULAR SCIENCE, 4 (1), 15-25 (2014). 
 CP2K: atomistic simulations of condensed matter systems.
 http://dx.doi.org/10.1002/wcms.1159


 Grimme, S; Ehrlich, S; Goerigk, L. 
 JOURNAL OF COMPUTATIONAL CHEMISTRY, 32, 1456 (2011). 
 Effect of the damping function in dispersion corrected density functional theory.
 http://dx.doi.org/10.1002/jcc.21759


 Grimme, S; Antony, J; Ehrlich, S; Krieg, H. 
 JOURNAL OF CHEMICAL PHYSICS, 132 (15), 154104 (2010). 
 A consistent and accurate ab initio parametrization of density
 functional dispersion correction (DFT-D) for the 94 elements H-Pu.
 http://dx.doi.org/10.1063/1.3382344


 Guidon, M; Hutter, J; VandeVondele, J. 
 JOURNAL OF CHEMICAL THEORY AND COMPUTATION, 5 (11), 3010-3021 (2009). 
 Robust Periodic Hartree-Fock Exchange for Large-Scale Simulations Using
 Gaussian Basis Sets.
 http://dx.doi.org/10.1021/ct900494g


 Guidon, M; Schiffmann, F; Hutter, J; VandeVondele, J. 
 JOURNAL OF CHEMICAL PHYSICS, 128 (21), 214104 (2008). 
 Ab initio molecular dynamics using hybrid density functionals.
 http://dx.doi.org/10.1063/1.2931945


 Krack, M. 
 THEORETICAL CHEMISTRY ACCOUNTS, 114 (1-3), 145-152 (2005). 
 Pseudopotentials for H to Kr optimized for gradient-corrected
 exchange-correlation functionals.
 http://dx.doi.org/10.1007/s00214-005-0655-y


 VandeVondele, J; Krack, M; Mohamed, F; Parrinello, M; Chassaing, T;
 Hutter, J. COMPUTER PHYSICS COMMUNICATIONS, 167 (2), 103-128 (2005). 
 QUICKSTEP: Fast and accurate density functional calculations using a
 mixed Gaussian and plane waves approach.
 http://dx.doi.org/10.1016/j.cpc.2004.12.014


 Frigo, M; Johnson, SG. 
 PROCEEDINGS OF THE IEEE, 93 (2), 216-231 (2005). 
 The design and implementation of FFTW3.
 http://dx.doi.org/10.1109/JPROC.2004.840301


 VandeVondele, J; Hutter, J. 
 JOURNAL OF CHEMICAL PHYSICS, 118 (10), 4365-4369 (2003). 
 An efficient orbital transformation method for electronic structure
 calculations.
 http://dx.doi.org/10.1063/1.1543154


 Hartwigsen, C; Goedecker, S; Hutter, J. 
 PHYSICAL REVIEW B, 58 (7), 3641-3662 (1998). 
 Relativistic separable dual-space Gaussian pseudopotentials from H to Rn.
 http://dx.doi.org/10.1103/PhysRevB.58.3641


 Lippert, G; Hutter, J; Parrinello, M. 
 MOLECULAR PHYSICS, 92 (3), 477-487 (1997). 
 A hybrid Gaussian and plane wave density functional scheme.
 http://dx.doi.org/10.1080/002689797170220


 Perdew, JP; Burke, K; Ernzerhof, M. 
 PHYSICAL REVIEW LETTERS, 77 (18), 3865-3868 (1996). 
 Generalized gradient approximation made simple.
 http://dx.doi.org/10.1103/PhysRevLett.77.3865


 Goedecker, S; Teter, M; Hutter, J. 
 PHYSICAL REVIEW B, 54 (3), 1703-1710 (1996). 
 Separable dual-space Gaussian pseudopotentials.
 http://dx.doi.org/10.1103/PhysRevB.54.1703


 -------------------------------------------------------------------------------
 -                                                                             -
 -                                T I M I N G                                  -
 -                                                                             -
 -------------------------------------------------------------------------------
 SUBROUTINE                       CALLS  ASD         SELF TIME        TOTAL TIME
                                MAXIMUM       AVERAGE  MAXIMUM  AVERAGE  MAXIMUM
 CP2K                                 1  1.0    0.022    0.025   52.167   52.175
 qs_energies_scf                      1  2.0    0.000    0.000   51.901   51.908
 scf_env_do_scf                       1  3.0    0.000    0.000   28.964   28.968
 qs_ks_update_qs_env                 11  5.0    0.000    0.000   25.813   25.819
 rebuild_ks_matrix                   10  6.0    0.000    0.000   25.810   25.816
 qs_ks_build_kohn_sham_matrix        10  7.0    0.002    0.003   25.810   25.816
 hfx_ks_matrix                       10  8.0    0.000    0.000   23.479   23.499
 integrate_four_center               10  9.0    2.916    3.830   23.474   23.494
 dbcsr_mm_cannon_multiply          2834  8.0    1.284    1.608   22.469   22.721
 scf_post_calculation_gpw             1  3.0    0.000    0.000   21.664   21.667
 make_lumo                            1  4.0    0.000    0.000   21.541   21.543
 ot_eigensolver                       1  5.0    0.007    0.008   21.527   21.530
 integrate_four_center_main          10 10.0    0.005    0.006   18.634   21.039
 integrate_four_center_bin          670 11.0   18.629   21.034   18.629   21.034
 init_scf_loop                        1  4.0    0.000    0.000   16.035   16.037
 scf_env_do_scf_inner_loop           10  4.0    0.000    0.001   12.884   12.929
 ot_mini                            193  6.1    0.002    0.003   11.442   11.450
 cannon_multiply_low               2834  9.0    0.948    1.322   10.069   10.607
 qs_ot_get_derivative               102  7.1    0.003    0.003   10.235   10.256
 dbcsr_make_images                 5668  9.0    0.015    0.016    7.823    7.998
 make_images                       5668 10.0    0.202    0.240    7.809    7.983
 dbcsr_data_new                   96966 10.9    0.204    0.235    5.725    6.306
 internal_data_allocate           58693 12.0    5.524    6.076    5.524    6.076
 qs_ot_get_derivative_diag           67  8.0    0.005    0.006    5.142    5.154
 qs_ot_get_p                        199  6.1    0.002    0.003    4.830    4.988
 dbcsr_create_new                 41580  9.8    0.194    0.216    4.337    4.524
 dbcsr_data_release              173081 11.2    0.180    0.204    3.821    4.151
 internal_data_deallocate         58693 12.2    3.645    3.981    3.645    3.981
 setup_buffer_matrices             5668 10.0    1.970    2.090    3.014    3.291
 qs_ot_get_orbitals                 198  6.1    0.003    0.003    3.021    3.035
 dbcsr_destroy                    34559  9.2    0.098    0.110    2.773    3.016
 buffer_matrices_ensure_size       5668 10.0    2.374    2.978    2.374    2.978
 qs_ot_get_derivative_taylor         35  8.3    0.003    0.004    2.541    2.547
 fft_wrap_pw1pw2                    176  9.6    0.003    0.004    2.514    2.530
 qs_ot_p2m_diag                     141  7.0    0.004    0.005    2.383    2.402
 fft_wrap_pw1pw2_200                113 10.8    0.079    0.097    2.385    2.399
 fft3d_ps                           176 11.6    0.371    0.482    2.341    2.365
 cannon_multiply_low_metrocomm1   22672 10.0    1.117    2.085    1.117    2.085
 dbcsr_make_images_dense           4838  9.3    0.080    0.098    1.844    2.012
 make_images_sizes                 5668 11.0    1.704    2.011    1.704    2.011
 qs_scf_loop_do_ot                   10  5.0    0.000    0.000    1.814    1.816
 ot_scf_mini                         10  6.0    0.001    0.001    1.707    1.709
 integrate_four_center_load          10 10.0    0.000    0.000    1.525    1.527
 hfx_load_balance                     1 11.0    0.001    0.001    1.524    1.527
 yz_to_x                             63 12.4    1.430    1.486    1.430    1.486
 cannon_multiply_low_metrocomm3   22672 10.0    0.903    1.375    0.903    1.375
 dbcsr_special_finalize            5668 11.0    0.015    0.019    1.095    1.256
 dbcsr_switch_data_area           23586 10.9    0.034    0.039    1.073    1.223
 quick_finalize                    6407 11.8    0.026    0.031    1.066    1.221
 apply_preconditioner_dbcsr         108  7.2    0.000    0.000    1.135    1.176
 apply_single                       108  8.2    0.001    0.001    1.135    1.175
 dbcsr_make_dense_low              7244 10.3    0.060    0.069    0.881    1.160
 qs_vxc_create                       10  8.0    0.000    0.000    1.144    1.156
 xc_vxc_pw_create                    10  9.0    0.028    0.034    1.143    1.155
 qs_rho_update_rho                   11  5.0    0.000    0.000    1.097    1.098
 calculate_rho_elec                  11  6.0    0.356    0.372    1.097    1.097
 qs_energies_init_hamiltonians        1  3.0    0.000    0.000    1.085    1.085
 hfx_load_balance_dist                1 12.0    0.553    1.077    0.553    1.077
 -------------------------------------------------------------------------------

  **** **** ******  **  PROGRAM ENDED AT                 2015-03-10 12:09:43.221
 ***** ** ***  *** **   PROGRAM RAN ON                                      n268
 **    ****   ******    PROGRAM RAN BY                                     bja39
 ***** **    ** ** **   PROGRAM PROCESS ID                                 15341
  **** **  *******  **  PROGRAM STOPPED IN /home/dlambrecht/bja39/cp2k/hfx/hfx99
