 DBCSR| Multiplication driver                                                SMM
 DBCSR| Multrec recursion limit                                              512
 DBCSR| Multiplication stack size                                           1000
 DBCSR| Multiplication size stacks                                             3
 DBCSR| Use subcommunicators                                                   T
 DBCSR| Use MPI combined types                                                 F
 DBCSR| Use MPI memory allocation                                              T
 DBCSR| Use Communication thread                                               T
 DBCSR| Communication thread load                                             87


  **** **** ******  **  PROGRAM STARTED AT               2015-03-10 15:08:50.602
 ***** ** ***  *** **   PROGRAM STARTED ON                                  n260
 **    ****   ******    PROGRAM STARTED BY                                 bja39
 ***** **    ** ** **   PROGRAM PROCESS ID                                 31988
  **** **  *******  **  PROGRAM STARTED IN       /home/dlambrecht/bja39/cp2k/mp2

 CP2K| version string:                                          CP2K version 2.6
 CP2K| source code revision number:                                  git:9520686
 CP2K| is freely available from                             http://www.cp2k.org/
 CP2K| Program compiled at                          Fri Feb 27 09:44:54 EST 2015
 CP2K| Program compiled on                            login0a.frank.sam.pitt.edu
 CP2K| Program compiled for                                                Frank
 CP2K| Input file name                                                   rpa.inp
 
 GLOBAL| Force Environment number                                              1
 GLOBAL| Basis set file name                                         ./HFX_BASIS
 GLOBAL| Geminal file name                                         BASIS_GEMINAL
 GLOBAL| Potential file name                                     ./HF_POTENTIALS
 GLOBAL| MM Potential file name                                     MM_POTENTIAL
 GLOBAL| Coordinate file name                                      __STD_INPUT__
 GLOBAL| Method name                                                        CP2K
 GLOBAL| Project name                                              benzene_dimer
 GLOBAL| Preferred FFT library                                             FFTW3
 GLOBAL| Preferred diagonalization lib.                                       SL
 GLOBAL| Run type                                                         ENERGY
 GLOBAL| All-to-all communication in single precision                          F
 GLOBAL| FFTs using library dependent lengths                                  F
 GLOBAL| Global print level                                               MEDIUM
 GLOBAL| Total number of message passing processes                            64
 GLOBAL| Number of threads for this process                                    1
 GLOBAL| This output is from process                                           0

 MEMORY| system memory details [Kb]
 MEMORY|                        rank 0           min           max       average
 MEMORY| MemTotal             32989296      32989296      32989296      32989296
 MEMORY| MemFree              14185528      14146468      14755696      14433089
 MEMORY| Buffers                   960           960         68708         18047
 MEMORY| Cached               16779248      13938064      16779248      15927667
 MEMORY| Slab                   681412        654060       2897644       1259936
 MEMORY| SReclaimable           142148        142148       2526588        815632
 MEMORY| MemLikelyFree        31107884      31068824      31289056      31194435


 *** Fundamental physical constants (SI units) ***

 *** Literature: B. J. Mohr and B. N. Taylor,
 ***             CODATA recommended values of the fundamental physical
 ***             constants: 2006, Web Version 5.1
 ***             http://physics.nist.gov/constants

 Speed of light in vacuum [m/s]                             2.99792458000000E+08
 Magnetic constant or permeability of vacuum [N/A**2]       1.25663706143592E-06
 Electric constant or permittivity of vacuum [F/m]          8.85418781762039E-12
 Planck constant (h) [J*s]                                  6.62606896000000E-34
 Planck constant (h-bar) [J*s]                              1.05457162825177E-34
 Elementary charge [C]                                      1.60217648700000E-19
 Electron mass [kg]                                         9.10938215000000E-31
 Electron g factor [ ]                                     -2.00231930436220E+00
 Proton mass [kg]                                           1.67262163700000E-27
 Fine-structure constant                                    7.29735253760000E-03
 Rydberg constant [1/m]                                     1.09737315685270E+07
 Avogadro constant [1/mol]                                  6.02214179000000E+23
 Boltzmann constant [J/K]                                   1.38065040000000E-23
 Atomic mass unit [kg]                                      1.66053878200000E-27
 Bohr radius [m]                                            5.29177208590000E-11

 *** Conversion factors ***

 [u] -> [a.u.]                                              1.82288848426455E+03
 [Angstrom] -> [Bohr] = [a.u.]                              1.88972613288564E+00
 [a.u.] = [Bohr] -> [Angstrom]                              5.29177208590000E-01
 [a.u.] -> [s]                                              2.41888432650478E-17
 [a.u.] -> [fs]                                             2.41888432650478E-02
 [a.u.] -> [J]                                              4.35974393937059E-18
 [a.u.] -> [N]                                              8.23872205491840E-08
 [a.u.] -> [K]                                              3.15774647902944E+05
 [a.u.] -> [kJ/mol]                                         2.62549961709828E+03
 [a.u.] -> [kcal/mol]                                       6.27509468713739E+02
 [a.u.] -> [Pa]                                             2.94210107994716E+13
 [a.u.] -> [bar]                                            2.94210107994716E+08
 [a.u.] -> [atm]                                            2.90362800883016E+08
 [a.u.] -> [eV]                                             2.72113838565563E+01
 [a.u.] -> [Hz]                                             6.57968392072181E+15
 [a.u.] -> [1/cm] (wave numbers)                            2.19474631370540E+05
 [a.u./Bohr**2] -> [1/cm]                                   5.14048714338585E+03
 

 CELL_TOP| Volume [angstrom^3]:                                         3375.000
 CELL_TOP| Vector a [angstrom    15.000     0.000     0.000    |a| =      15.000
 CELL_TOP| Vector b [angstrom     0.000    15.000     0.000    |b| =      15.000
 CELL_TOP| Vector c [angstrom     0.000     0.000    15.000    |c| =      15.000
 CELL_TOP| Angle (b,c), alpha [degree]:                                   90.000
 CELL_TOP| Angle (a,c), beta  [degree]:                                   90.000
 CELL_TOP| Angle (a,b), gamma [degree]:                                   90.000
 CELL_TOP| Numerically orthorhombic:                                         YES
 
 GENERATE|  Preliminary Number of Bonds generated:                             0
 GENERATE|  Achieved consistency in connectivity generation.

 CELL| Volume [angstrom^3]:                                             3375.000
 CELL| Vector a [angstrom]:      15.000     0.000     0.000    |a| =      15.000
 CELL| Vector b [angstrom]:       0.000    15.000     0.000    |b| =      15.000
 CELL| Vector c [angstrom]:       0.000     0.000    15.000    |c| =      15.000
 CELL| Angle (b,c), alpha [degree]:                                       90.000
 CELL| Angle (a,c), beta  [degree]:                                       90.000
 CELL| Angle (a,b), gamma [degree]:                                       90.000
 CELL| Numerically orthorhombic:                                             YES

 CELL_REF| Volume [angstrom^3]:                                         3375.000
 CELL_REF| Vector a [angstrom    15.000     0.000     0.000    |a| =      15.000
 CELL_REF| Vector b [angstrom     0.000    15.000     0.000    |b| =      15.000
 CELL_REF| Vector c [angstrom     0.000     0.000    15.000    |c| =      15.000
 CELL_REF| Angle (b,c), alpha [degree]:                                   90.000
 CELL_REF| Angle (a,c), beta  [degree]:                                   90.000
 CELL_REF| Angle (a,b), gamma [degree]:                                   90.000
 CELL_REF| Numerically orthorhombic:                                         YES

 *******************************************************************************
 *******************************************************************************
 **                                                                           **
 **     #####                         ##              ##                      **
 **    ##   ##            ##          ##              ##                      **
 **   ##     ##                       ##            ######                    **
 **   ##     ##  ##   ##  ##   #####  ##  ##   ####   ##    #####    #####    **
 **   ##     ##  ##   ##  ##  ##      ## ##   ##      ##   ##   ##  ##   ##   **
 **   ##  ## ##  ##   ##  ##  ##      ####     ###    ##   ######   ######    **
 **    ##  ###   ##   ##  ##  ##      ## ##      ##   ##   ##       ##        **
 **     #######   #####   ##   #####  ##  ##  ####    ##    #####   ##        **
 **           ##                                                    ##        **
 **                                                                           **
 **                                                ... make the atoms dance   **
 **                                                                           **
 **            Copyright (C) by CP2K Developers Group (2000 - 2014)           **
 **                                                                           **
 *******************************************************************************

 DFT| Spin restricted Kohn-Sham (RKS) calculation                            RKS
 DFT| Multiplicity                                                             1
 DFT| Number of spin states                                                    1
 DFT| Charge                                                                   0
 DFT| Self-interaction correction (SIC)                                       NO
 DFT| Cutoffs: density                                              1.000000E-10
 DFT|          gradient                                             1.000000E-10
 DFT|          tau                                                  1.000000E-10
 DFT|          cutoff_smoothing_range                               0.000000E+00
 DFT| XC density smoothing                                                  NONE
 DFT| XC derivatives                                                          PW
 FUNCTIONAL| NO EXCHANGE-CORRELATION FUNCTIONAL USED.

 QS| Method:                                                                 GPW
 QS| Density plane wave grid type                        NON-SPHERICAL FULLSPACE
 QS| Number of grid levels:                                                    4
 QS| Density cutoff [a.u.]:                                                200.0
 QS| Multi grid cutoff [a.u.]: 1) grid level                               200.0
 QS|                           2) grid level                                66.7
 QS|                           3) grid level                                22.2
 QS|                           4) grid level                                 7.4
 QS| Grid level progression factor:                                          3.0
 QS| Relative density cutoff [a.u.]:                                        20.0
 QS| Consistent realspace mapping and integration 
 QS| Interaction thresholds: eps_pgf_orb:                                1.0E-08
 QS|                         eps_filter_matrix:                          0.0E+00
 QS|                         eps_core_charge:                            1.0E-12
 QS|                         eps_rho_gspace:                             1.0E-10
 QS|                         eps_rho_rspace:                             1.0E-10
 QS|                         eps_gvg_rspace:                             1.0E-05
 QS|                         eps_ppl:                                    1.0E-02
 QS|                         eps_ppnl:                                   1.0E-07


 ATOMIC KIND INFORMATION

  1. Atomic kind: H                                     Number of atoms:      12

     Orbital Basis Set                                              cc-TZV2P-GTH

       Number of orbital shell sets:                                           6
       Number of orbital shells:                                               6
       Number of primitive Cartesian functions:                                8
       Number of Cartesian basis functions:                                   15
       Number of spherical basis functions:                                   14
       Norm type:                                                              2

       Normalised Cartesian orbitals:

                        Set   Shell   Orbital            Exponent    Coefficient

                          1       1    1s               10.882724      -0.281396
                                                         3.096875      -0.411840
                                                         0.987452      -0.533977

                          2       1    1s                0.345069       0.320878

                          3       1    1s                0.149269       0.171154

                          4       1    2px               1.407000       2.184277
                          4       1    2py               1.407000       2.184277
                          4       1    2pz               1.407000       2.184277

                          5       1    2px               0.388000       0.436495
                          5       1    2py               0.388000       0.436495
                          5       1    2pz               0.388000       0.436495

                          6       1    3dx2              1.057000       1.813597
                          6       1    3dxy              1.057000       3.141241
                          6       1    3dxz              1.057000       3.141241
                          6       1    3dy2              1.057000       1.813597
                          6       1    3dyz              1.057000       3.141241
                          6       1    3dz2              1.057000       1.813597

     RI Auxiliary Basis Set                                       TZ_fiodena_opt

       Number of orbital shell sets:                                          10
       Number of orbital shells:                                              10
       Number of primitive Cartesian functions:                               10
       Number of Cartesian basis functions:                                   35
       Number of spherical basis functions:                                   30
       Norm type:                                                              2

       Normalised Cartesian orbitals:

                        Set   Shell   Orbital            Exponent    Coefficient

                          1       1    1s                8.511592       3.551552

                          2       1    1s                1.874468       1.141744

                          3       1    1s                0.563252       0.463380

                          4       1    1s                0.369830       0.337996

                          5       1    1px               2.371171       4.194148
                          5       1    1py               2.371171       4.194148
                          5       1    1pz               2.371171       4.194148

                          6       1    1px               1.179416       1.751959
                          6       1    1py               1.179416       1.751959
                          6       1    1pz               1.179416       1.751959

                          7       1    1px               0.605043       0.760629
                          7       1    1py               0.605043       0.760629
                          7       1    1pz               0.605043       0.760629

                          8       1    1dx2              1.809253       4.645506
                          8       1    1dxy              1.809253       8.046253
                          8       1    1dxz              1.809253       8.046253
                          8       1    1dy2              1.809253       4.645506
                          8       1    1dyz              1.809253       8.046253
                          8       1    1dz2              1.809253       4.645506

                          9       1    1dx2              1.143322       2.080676
                          9       1    1dxy              1.143322       3.603837
                          9       1    1dxz              1.143322       3.603837
                          9       1    1dy2              1.143322       2.080676
                          9       1    1dyz              1.143322       3.603837
                          9       1    1dz2              1.143322       2.080676

                         10       1    1fx3              1.806580       5.570362
                         10       1    1fx2y             1.806580      12.455707
                         10       1    1fx2z             1.806580      12.455707
                         10       1    1fxy2             1.806580      12.455707
                         10       1    1fxyz             1.806580      21.573918
                         10       1    1fxz2             1.806580      12.455707
                         10       1    1fy3              1.806580       5.570362
                         10       1    1fy2z             1.806580      12.455707
                         10       1    1fyz2             1.806580      12.455707
                         10       1    1fz3              1.806580       5.570362

     Potential information for                                         GTH-HF-q1

       Description:                       Goedecker-Teter-Hutter pseudopotential
                                           Goedecker et al., PRB 54, 1703 (1996)
                                          Hartwigsen et al., PRB 58, 3641 (1998)
                                                      Krack, TCA 114, 145 (2005)

       Gaussian exponent of the core charge distribution:              12.925491
       Electronic configuration (s p d ...):                       1   0   0   0

       Parameters of the local part of the GTH pseudopotential:

                          rloc        C1          C2          C3          C4
                        0.196681   -4.122011    0.685113

  2. Atomic kind: C                                     Number of atoms:      12

     Orbital Basis Set                                              cc-TZV2P-GTH

       Number of orbital shell sets:                                           6
       Number of orbital shells:                                               9
       Number of primitive Cartesian functions:                                8
       Number of Cartesian basis functions:                                   34
       Number of spherical basis functions:                                   29
       Norm type:                                                              2

       Normalised Cartesian orbitals:

                        Set   Shell   Orbital            Exponent    Coefficient

                          1       1    2s                5.368566       0.916205
                                                         1.983069       0.463989
                                                         0.697835      -0.741585

                          1       2    3px               5.368566      -1.141992
                                                         1.983069      -1.089641
                                                         0.697835      -0.624469
                          1       2    3py               5.368566      -1.141992
                                                         1.983069      -1.089641
                                                         0.697835      -0.624469
                          1       2    3pz               5.368566      -1.141992
                                                         1.983069      -1.089641
                                                         0.697835      -0.624469

                          2       1    2s                0.243097       0.246743

                          2       2    3px               0.243097       0.243312
                          2       2    3py               0.243097       0.243312
                          2       2    3pz               0.243097       0.243312

                          3       1    2s                0.081287       0.108499

                          3       2    3px               0.081287       0.061868
                          3       2    3py               0.081287       0.061868
                          3       2    3pz               0.081287       0.061868

                          4       1    3dx2              1.097000       1.935401
                          4       1    3dxy              1.097000       3.352214
                          4       1    3dxz              1.097000       3.352214
                          4       1    3dy2              1.097000       1.935401
                          4       1    3dyz              1.097000       3.352214
                          4       1    3dz2              1.097000       1.935401

                          5       1    3dx2              0.318000       0.221644
                          5       1    3dxy              0.318000       0.383899
                          5       1    3dxz              0.318000       0.383899
                          5       1    3dy2              0.318000       0.221644
                          5       1    3dyz              0.318000       0.383899
                          5       1    3dz2              0.318000       0.221644

                          6       1    4fx3              0.761000       0.796288
                          6       1    4fx2y             0.761000       1.780553
                          6       1    4fx2z             0.761000       1.780553
                          6       1    4fxy2             0.761000       1.780553
                          6       1    4fxyz             0.761000       3.084008
                          6       1    4fxz2             0.761000       1.780553
                          6       1    4fy3              0.761000       0.796288
                          6       1    4fy2z             0.761000       1.780553
                          6       1    4fyz2             0.761000       1.780553
                          6       1    4fz3              0.761000       0.796288

     RI Auxiliary Basis Set                                       TZ_fiodena_opt

       Number of orbital shell sets:                                          20
       Number of orbital shells:                                              20
       Number of primitive Cartesian functions:                               20
       Number of Cartesian basis functions:                                   96
       Number of spherical basis functions:                                   76
       Norm type:                                                              2

       Normalised Cartesian orbitals:

                        Set   Shell   Orbital            Exponent    Coefficient

                          1       1    1s               22.260817       7.304087

                          2       1    1s                7.131525       3.110261

                          3       1    1s                3.538045       1.838580

                          4       1    1s                1.233345       0.834111

                          5       1    1s                0.282152       0.275913

                          6       1    1s                0.346826       0.322102

                          7       1    1px               7.297506      17.096539
                          7       1    1py               7.297506      17.096539
                          7       1    1pz               7.297506      17.096539

                          8       1    1px               3.789607       7.536726
                          8       1    1py               3.789607       7.536726
                          8       1    1pz               3.789607       7.536726

                          9       1    1px               1.063383       1.539226
                          9       1    1py               1.063383       1.539226
                          9       1    1pz               1.063383       1.539226

                         10       1    1px               0.235643       0.234023
                         10       1    1py               0.235643       0.234023
                         10       1    1pz               0.235643       0.234023

                         11       1    1px               0.507842       0.611084
                         11       1    1py               0.507842       0.611084
                         11       1    1pz               0.507842       0.611084

                         12       1    1dx2              9.900056      90.944267
                         12       1    1dxy              9.900056     157.520091
                         12       1    1dxz              9.900056     157.520091
                         12       1    1dy2              9.900056      90.944267
                         12       1    1dyz              9.900056     157.520091
                         12       1    1dz2              9.900056      90.944267

                         13       1    1dx2              2.340838       7.291371
                         13       1    1dxy              2.340838      12.629024
                         13       1    1dxz              2.340838      12.629024
                         13       1    1dy2              2.340838       7.291371
                         13       1    1dyz              2.340838      12.629024
                         13       1    1dz2              2.340838       7.291371

                         14       1    1dx2              1.519534       3.422966
                         14       1    1dxy              1.519534       5.928751
                         14       1    1dxz              1.519534       5.928751
                         14       1    1dy2              1.519534       3.422966
                         14       1    1dyz              1.519534       5.928751
                         14       1    1dz2              1.519534       3.422966

                         15       1    1dx2              0.578852       0.632271
                         15       1    1dxy              0.578852       1.095125
                         15       1    1dxz              0.578852       1.095125
                         15       1    1dy2              0.578852       0.632271
                         15       1    1dyz              0.578852       1.095125
                         15       1    1dz2              0.578852       0.632271

                         16       1    1dx2              0.372135       0.291833
                         16       1    1dxy              0.372135       0.505470
                         16       1    1dxz              0.372135       0.505470
                         16       1    1dy2              0.372135       0.291833
                         16       1    1dyz              0.372135       0.505470
                         16       1    1dz2              0.372135       0.291833

                         17       1    1fx3              1.933259       6.487943
                         17       1    1fx2y             1.933259      14.507482
                         17       1    1fx2z             1.933259      14.507482
                         17       1    1fxy2             1.933259      14.507482
                         17       1    1fxyz             1.933259      25.127695
                         17       1    1fxz2             1.933259      14.507482
                         17       1    1fy3              1.933259       6.487943
                         17       1    1fy2z             1.933259      14.507482
                         17       1    1fyz2             1.933259      14.507482
                         17       1    1fz3              1.933259       6.487943

                         18       1    1fx3              1.156055       2.040123
                         18       1    1fx2y             1.156055       4.561854
                         18       1    1fx2z             1.156055       4.561854
                         18       1    1fxy2             1.156055       4.561854
                         18       1    1fxyz             1.156055       7.901362
                         18       1    1fxz2             1.156055       4.561854
                         18       1    1fy3              1.156055       2.040123
                         18       1    1fy2z             1.156055       4.561854
                         18       1    1fyz2             1.156055       4.561854
                         18       1    1fz3              1.156055       2.040123

                         19       1    1fx3              0.498726       0.307712
                         19       1    1fx2y             0.498726       0.688065
                         19       1    1fx2z             0.498726       0.688065
                         19       1    1fxy2             0.498726       0.688065
                         19       1    1fxyz             0.498726       1.191763
                         19       1    1fxz2             0.498726       0.688065
                         19       1    1fy3              0.498726       0.307712
                         19       1    1fy2z             0.498726       0.688065
                         19       1    1fyz2             0.498726       0.688065
                         19       1    1fz3              0.498726       0.307712

                         20       1    1gx4              1.217567       1.912232
                         20       1    1gx3y             1.217567       5.059290
                         20       1    1gx3z             1.217567       5.059290
                         20       1    1gx2y2            1.217567       6.531515
                         20       1    1gx2yz            1.217567      11.312916
                         20       1    1gx2z2            1.217567       6.531515
                         20       1    1gxy3             1.217567       5.059290
                         20       1    1gxy2z            1.217567      11.312916
                         20       1    1gxyz2            1.217567      11.312916
                         20       1    1gxz3             1.217567       5.059290
                         20       1    1gy4              1.217567       1.912232
                         20       1    1gy3z             1.217567       5.059290
                         20       1    1gy2z2            1.217567       6.531515
                         20       1    1gyz3             1.217567       5.059290
                         20       1    1gz4              1.217567       1.912232

     Potential information for                                         GTH-HF-q4

       Description:                       Goedecker-Teter-Hutter pseudopotential
                                           Goedecker et al., PRB 54, 1703 (1996)
                                          Hartwigsen et al., PRB 58, 3641 (1998)
                                                      Krack, TCA 114, 145 (2005)

       Gaussian exponent of the core charge distribution:               5.025738
       Electronic configuration (s p d ...):                       2   2   0   0

       Parameters of the local part of the GTH pseudopotential:

                          rloc        C1          C2          C3          C4
                        0.315417   -8.867306    1.255277

       Parameters of the non-local part of the GTH pseudopotential:

                   l      r(l)      h(i,j,l)

                   0    0.301023    9.800186


 MOLECULE KIND INFORMATION


 All atoms are their own molecule, skipping detailed information


 TOTAL NUMBERS AND MAXIMUM NUMBERS

  Total number of            - Atomic kinds:                                   2
                             - Atoms:                                         24
                             - Shell sets:                                   144
                             - Shells:                                       180
                             - Primitive Cartesian functions:                192
                             - Cartesian basis functions:                    588
                             - Spherical basis functions:                    516

  Maximum angular momentum of- Orbital basis functions:                        3
                             - Local part of the GTH pseudopotential:          2
                             - Non-local part of the GTH pseudopotential:      0


 MODULE QUICKSTEP:  ATOMIC COORDINATES IN angstrom

  Atom  Kind  Element       X           Y           Z          Z(eff)       Mass

       1     1 H    1    8.570973    6.163102    9.176852      1.00       1.0079
       2     2 C    6    8.038756    5.977182    8.252729      4.00      12.0107
       3     2 C    6    6.642725    5.957526    8.242939      4.00      12.0107
       4     1 H    1    6.093732    6.126349    9.160920      1.00       1.0079
       5     2 C    6    5.954582    5.732839    7.047454      4.00      12.0107
       6     1 H    1    4.871718    5.721013    7.040379      1.00       1.0079
       7     2 C    6    6.663544    5.529341    5.861050      4.00      12.0107
       8     1 H    1    6.130043    5.355070    4.934944      1.00       1.0079
       9     2 C    6    8.061550    5.546023    5.870867      4.00      12.0107
      10     1 H    1    8.612087    5.385034    4.952217      1.00       1.0079
      11     2 C    6    8.747926    5.769730    7.066567      4.00      12.0107
      12     1 H    1    9.830676    5.790702    7.073587      1.00       1.0079
      13     1 H    1    6.428447    8.841903    5.822751      1.00       1.0079
      14     1 H    1    8.905715    8.876658    5.838616      1.00       1.0079
      15     2 C    6    6.960773    9.026894    6.747008      4.00      12.0107
      16     2 C    6    8.356822    9.045327    6.756657      4.00      12.0107
      17     2 C    6    6.252001    9.234346    7.933397      4.00      12.0107
      18     2 C    6    9.045415    9.268736    7.952177      4.00      12.0107
      19     1 H    1    5.169226    9.214552    7.926240      1.00       1.0079
      20     1 H    1   10.128282    9.279407    7.959318      1.00       1.0079
      21     2 C    6    6.938709    9.456690    9.129178      4.00      12.0107
      22     2 C    6    8.336721    9.471862    9.138756      4.00      12.0107
      23     1 H    1    6.388296    9.617777   10.047874      1.00       1.0079
      24     1 H    1    8.870335    9.644930   10.065056      1.00       1.0079




 SCF PARAMETERS         Density guess:                                    ATOMIC
                        --------------------------------------------------------
                        max_scf:                                              40
                        max_scf_history:                                       0
                        max_diis:                                              4
                        --------------------------------------------------------
                        eps_scf:                                        1.00E-06
                        eps_scf_history:                                0.00E+00
                        eps_diis:                                       1.00E-01
                        eps_eigval:                                     1.00E-05
                        --------------------------------------------------------
                        level_shift [a.u.]:                                 0.00
                        --------------------------------------------------------
                        Outer loop SCF in use 
                        No variables optimised in outer loop
                        eps_scf                                         1.00E-06
                        max_scf                                               10
                        No outer loop optimization
                        step_size                                       5.00E-01

 PW_GRID| Information for grid number                                          1
 PW_GRID| Grid distributed over                                    64 processors
 PW_GRID| Real space group dimensions                                    64    1
 PW_GRID| the grid is blocked:                                                NO
 PW_GRID| Cutoff [a.u.]                                                    200.0
 PW_GRID| spherical cutoff:                                                   NO
 PW_GRID|   Bounds   1            -96      95                Points:         192
 PW_GRID|   Bounds   2            -96      95                Points:         192
 PW_GRID|   Bounds   3            -96      95                Points:         192
 PW_GRID| Volume element (a.u.^3)  0.3218E-02     Volume (a.u.^3)     22775.6292
 PW_GRID| Grid span                                                    FULLSPACE
 PW_GRID|   Distribution                         Average         Max         Min
 PW_GRID|   G-Vectors                           110592.0      110592      110592
 PW_GRID|   G-Rays                                 576.0         576         576
 PW_GRID|   Real Space Points                   110592.0      110592      110592

 PW_GRID| Information for grid number                                          2
 PW_GRID| Grid distributed over                                    64 processors
 PW_GRID| Real space group dimensions                                    64    1
 PW_GRID| the grid is blocked:                                                NO
 PW_GRID| Cutoff [a.u.]                                                     66.7
 PW_GRID| spherical cutoff:                                                   NO
 PW_GRID|   Bounds   1            -54      53                Points:         108
 PW_GRID|   Bounds   2            -54      53                Points:         108
 PW_GRID|   Bounds   3            -54      53                Points:         108
 PW_GRID| Volume element (a.u.^3)  0.1808E-01     Volume (a.u.^3)     22775.6292
 PW_GRID| Grid span                                                    FULLSPACE
 PW_GRID|   Distribution                         Average         Max         Min
 PW_GRID|   G-Vectors                            19683.0       19764       19548
 PW_GRID|   G-Rays                                 182.2         183         181
 PW_GRID|   Real Space Points                    19683.0       23328       11664

 PW_GRID| Information for grid number                                          3
 PW_GRID| Grid distributed over                                    64 processors
 PW_GRID| Real space group dimensions                                    64    1
 PW_GRID| the grid is blocked:                                                NO
 PW_GRID| Cutoff [a.u.]                                                     22.2
 PW_GRID| spherical cutoff:                                                   NO
 PW_GRID|   Bounds   1            -32      31                Points:          64
 PW_GRID|   Bounds   2            -32      31                Points:          64
 PW_GRID|   Bounds   3            -32      31                Points:          64
 PW_GRID| Volume element (a.u.^3)  0.8688E-01     Volume (a.u.^3)     22775.6292
 PW_GRID| Grid span                                                    FULLSPACE
 PW_GRID|   Distribution                         Average         Max         Min
 PW_GRID|   G-Vectors                             4096.0        4288        3968
 PW_GRID|   G-Rays                                  64.0          67          62
 PW_GRID|   Real Space Points                     4096.0        4096        4096

 PW_GRID| Information for grid number                                          4
 PW_GRID| Grid distributed over                                    64 processors
 PW_GRID| Real space group dimensions                                     8    8
 PW_GRID| the grid is blocked:                                                NO
 PW_GRID| Cutoff [a.u.]                                                      7.4
 PW_GRID| spherical cutoff:                                                   NO
 PW_GRID|   Bounds   1            -18      17                Points:          36
 PW_GRID|   Bounds   2            -18      17                Points:          36
 PW_GRID|   Bounds   3            -18      17                Points:          36
 PW_GRID| Volume element (a.u.^3)  0.4882         Volume (a.u.^3)     22775.6292
 PW_GRID| Grid span                                                    FULLSPACE
 PW_GRID|   Distribution                         Average         Max         Min
 PW_GRID|   G-Vectors                              729.0         792         684
 PW_GRID|   G-Rays                                  20.2          22          19
 PW_GRID|   Real Space Points                      729.0         900         576

 POISSON| Solver                                                         WAVELET
 POISSON| Wavelet| Scaling function                                           40
 POISSON| Periodicity                                                       NONE

 RS_GRID| Information for grid number                                          1
 RS_GRID|   Bounds   1            -96      95                Points:         192
 RS_GRID|   Bounds   2            -96      95                Points:         192
 RS_GRID|   Bounds   3            -96      95                Points:         192
 RS_GRID| Real space distribution over                                  4 groups
 RS_GRID| Real space distribution along direction                              1
 RS_GRID| Border size                                                         21
 RS_GRID| Real space distribution over                                  4 groups
 RS_GRID| Real space distribution along direction                              2
 RS_GRID| Border size                                                         21
 RS_GRID| Real space distribution over                                  4 groups
 RS_GRID| Real space distribution along direction                              3
 RS_GRID| Border size                                                         21
 RS_GRID|   Distribution                         Average         Max         Min
 RS_GRID|   Planes                                  90.0          90          90
 RS_GRID|   Distribution                         Average         Max         Min
 RS_GRID|   Planes                                  90.0          90          90
 RS_GRID|   Distribution                         Average         Max         Min
 RS_GRID|   Planes                                  90.0          90          90

 RS_GRID| Information for grid number                                          2
 RS_GRID|   Bounds   1            -54      53                Points:         108
 RS_GRID|   Bounds   2            -54      53                Points:         108
 RS_GRID|   Bounds   3            -54      53                Points:         108
 RS_GRID| Real space distribution over                                  4 groups
 RS_GRID| Real space distribution along direction                              1
 RS_GRID| Border size                                                         21
 RS_GRID| Real space distribution over                                  4 groups
 RS_GRID| Real space distribution along direction                              2
 RS_GRID| Border size                                                         21
 RS_GRID| Real space distribution over                                  4 groups
 RS_GRID| Real space distribution along direction                              3
 RS_GRID| Border size                                                         21
 RS_GRID|   Distribution                         Average         Max         Min
 RS_GRID|   Planes                                  69.0          69          69
 RS_GRID|   Distribution                         Average         Max         Min
 RS_GRID|   Planes                                  69.0          69          69
 RS_GRID|   Distribution                         Average         Max         Min
 RS_GRID|   Planes                                  69.0          69          69

 RS_GRID| Information for grid number                                          3
 RS_GRID|   Bounds   1            -32      31                Points:          64
 RS_GRID|   Bounds   2            -32      31                Points:          64
 RS_GRID|   Bounds   3            -32      31                Points:          64
 RS_GRID| Real space fully replicated
 RS_GRID| Group size                                                           1

 RS_GRID| Information for grid number                                          4
 RS_GRID|   Bounds   1            -18      17                Points:          36
 RS_GRID|   Bounds   2            -18      17                Points:          36
 RS_GRID|   Bounds   3            -18      17                Points:          36
 RS_GRID| Real space fully replicated
 RS_GRID| Group size                                                           1

 DISTRIBUTION OF THE PARTICLES (ROWS)
              Process row      Number of particles         Number of matrix rows
                        0                        2                            -1
                        1                        2                            -1
                        2                        4                            -1
                        3                        4                            -1
                        4                        4                            -1
                        5                        4                            -1
                        6                        2                            -1
                        7                        2                            -1
                      Sum                       24                            -1

 DISTRIBUTION OF THE PARTICLES (COLUMNS)
              Process col      Number of particles      Number of matrix columns
                        0                        2                            -1
                        1                        2                            -1
                        2                        4                            -1
                        3                        4                            -1
                        4                        4                            -1
                        5                        4                            -1
                        6                        2                            -1
                        7                        2                            -1
                      Sum                       24                            -1

  HFX_INFO| Replica ID:                                                        1
  HFX_INFO| EPS_SCHWARZ:                                                 1.0E-09
  HFX_INFO| EPS_SCHWARZ_FORCES                                           1.0E-06
  HFX_INFO| EPS_STORAGE_SCALING:                                         1.0E+00
  HFX_INFO| NBINS:                                                            64
  HFX_INFO| BLOCK_SIZE:                                                        1
  HFX_INFO| FRACTION:                                               1.0000000000
  HFX_INFO| Interaction Potential:                                       COULOMB
  HFX_INFO| Number of periodic shells considered:                           NONE
  HFX_INFO| Number of periodic cells considered:                            NONE

 
 RI-RPA| using GPW style
 

  HFX_INFO| Replica ID:                                                        1
  HFX_INFO| EPS_SCHWARZ:                                                 1.0E-08
  HFX_INFO| EPS_SCHWARZ_FORCES                                           1.0E-06
  HFX_INFO| EPS_STORAGE_SCALING:                                         1.0E+00
  HFX_INFO| NBINS:                                                            64
  HFX_INFO| BLOCK_SIZE:                                                        1
  HFX_INFO| FRACTION:                                               1.0000000000
  HFX_INFO| Interaction Potential:                                       COULOMB
  HFX_INFO| Number of periodic shells considered:                           NONE
  HFX_INFO| Number of periodic cells considered:                            NONE


 DISTRIBUTION OF THE NEIGHBOR LISTS
              Total number of particle pairs:                                300
              Total number of matrix elements:                            139350
              Average number of particle pairs:                                5
              Maximum number of particle pairs:                               11
              Average number of matrix element:                             2178
              Maximum number of matrix elements:                            3306


 DISTRIBUTION OF THE OVERLAP MATRIX
              Number  of non-zero blocks:                                    300
              Percentage non-zero blocks:                                 100.00
              Average number of blocks per CPU:                                5
              Maximum number of blocks per CPU:                               11
              Average number of matrix elements per CPU:                    2188
              Maximum number of matrix elements per CPU:                    3316

 Number of electrons:                                                         60
 Number of occupied orbitals:                                                 30
 Number of molecular orbitals:                                                30

 Number of orbital functions:                                                516
 Number of independent orbital functions:                                    516

 Extrapolation method: initial_guess

 Atomic guess: The first density matrix is obtained in terms of atomic orbitals
               and electronic configurations assigned to each atomic kind

 Guess for atomic kind: H

 Electronic structure
    Total number of core electrons                                          0.00
    Total number of valence electrons                                       1.00
    Total number of electrons                                               1.00
    Multiplicity                                                   not specified
    S      1.00
 

 *******************************************************************************
                  Iteration          Convergence                     Energy [au]
 *******************************************************************************
                          1        0.428628E-02                  -0.423530348125
                          2        0.332902E-03                  -0.423542013807
                          3        0.239525E-04                  -0.423542174957
                          4        0.614945E-08                  -0.423542175822

 Energy components [Hartree]           Total Energy ::           -0.423542175822
                                        Band Energy ::           -0.195292980104
                                     Kinetic Energy ::            0.469927864022
                                   Potential Energy ::           -0.893470039844
                                      Virial (-V/T) ::            1.901291896584
                                        Core Energy ::           -0.479716361195
                                          XC Energy ::           -0.247077680072
                                     Coulomb Energy ::            0.303251865444
                       Total Pseudopotential Energy ::           -0.967507352707
                       Local Pseudopotential Energy ::           -0.967507352707
                    Nonlocal Pseudopotential Energy ::            0.000000000000
                                        Confinement ::            0.178631274904

 Orbital energies  State     L     Occupation   Energy[a.u.]          Energy[eV]

                       1     0          1.000      -0.195293           -5.314192
 

 Guess for atomic kind: C

 Electronic structure
    Total number of core electrons                                          2.00
    Total number of valence electrons                                       4.00
    Total number of electrons                                               6.00
    Multiplicity                                                   not specified
    S   [  2.00] 2.00
    P      2.00
 

 *******************************************************************************
                  Iteration          Convergence                     Energy [au]
 *******************************************************************************
                          1        0.335926                      -5.155958751361
                          2        0.209362                      -5.215775778914
                          3        0.152820E-01                  -5.269385547640
                          4        0.294726E-03                  -5.269675264961
                          5        0.179195E-04                  -5.269675309831
                          6        0.241120E-06                  -5.269675310240

 Energy components [Hartree]           Total Energy ::           -5.269675310240
                                        Band Energy ::           -1.318922035875
                                     Kinetic Energy ::            3.354820166413
                                   Potential Energy ::           -8.624495476653
                                      Virial (-V/T) ::            2.570777284278
                                        Core Energy ::           -8.268657086037
                                          XC Energy ::           -1.372374857979
                                     Coulomb Energy ::            4.371356633776
                       Total Pseudopotential Energy ::          -11.658019119682
                       Local Pseudopotential Energy ::          -12.295049974453
                    Nonlocal Pseudopotential Energy ::            0.637030854771
                                        Confinement ::            0.345418672319

 Orbital energies  State     L     Occupation   Energy[a.u.]          Energy[eV]

                       1     0          2.000      -0.486789          -13.246210
 
                       1     1          2.000      -0.172672           -4.698637
 
 Re-scaling the density matrix to get the right number of electrons
                  # Electrons              Trace(P)               Scaling factor
                           60                60.000                        1.000


 SCF WAVEFUNCTION OPTIMIZATION

  ----------------------------------- OT ---------------------------------------

  Allowing for rotations:  F
  Optimizing orbital energies:  F
  Minimizer      : CG                  : conjugate gradient
  Preconditioner : FULL_SINGLE_INVERSE : inversion of H + eS - 2*(Sc)(c^T*H*c+const)(Sc)^T
  Precond_solver : DEFAULT
  Line search    : 2PNT                : 2 energies, one gradient
  stepsize       :    0.08000000
  energy_gap     :    0.08000000

  eps_taylor     :   0.10000E-15
  max_taylor     :             4

  mixed_precision    : F

  ----------------------------------- OT ---------------------------------------

  Step     Update method      Time    Convergence         Total energy    Change
  ------------------------------------------------------------------------------

  Trace(PS):                                   60.0000000000
  Electronic density on regular grids:        -59.9999999988        0.0000000012
  Core density on regular grids:               59.9999999963       -0.0000000037
  Total charge density on r-space grids:       -0.0000000026
  Total charge density g-space grids:          -0.0000000026


  HFX_MEM_INFO| Est. max. program size before HFX [MB's]:                    167
  HFX_MEM_INFO| Number of cart. primitive ERI's calculated:          18861628314
  HFX_MEM_INFO| Number of sph. ERI's calculated:                      6679510009
  HFX_MEM_INFO| Number of sph. ERI's stored in-core:                  6679510009
  HFX_MEM_INFO| Number of sph. ERI's stored on disk:                           0
  HFX_MEM_INFO| Number of sph. ERI's calculated on the fly:                    0
  HFX_MEM_INFO| Total memory consumption ERI's RAM [MB's]:                 14314
  HFX_MEM_INFO| Whereof max-vals [MB's]:                                      28
  HFX_MEM_INFO| Total compression factor ERI's RAM:                         3.56
  HFX_MEM_INFO| Total memory consumption ERI's disk [MB's]:                    0
  HFX_MEM_INFO| Total compression factor ERI's disk:                        0.00
  HFX_MEM_INFO| Size of density/Fock matrix [MB's]:                            2
  HFX_MEM_INFO| Size of buffers [MB's]:                                        0
  HFX_MEM_INFO| Est. max. program size after HFX  [MB's]:                    401

     1 OT CG       0.80E-01   12.8     0.06542518       -64.3913595904 -6.44E+01

  Trace(PS):                                   60.0000000000
  Electronic density on regular grids:        -59.9999999990        0.0000000010
  Core density on regular grids:               59.9999999963       -0.0000000037
  Total charge density on r-space grids:       -0.0000000027
  Total charge density g-space grids:          -0.0000000027

     2 OT LS       0.17E+00    1.3                      -68.4167050609

  Trace(PS):                                   60.0000000000
  Electronic density on regular grids:        -59.9999999990        0.0000000010
  Core density on regular grids:               59.9999999963       -0.0000000037
  Total charge density on r-space grids:       -0.0000000027
  Total charge density g-space grids:          -0.0000000027

     3 OT CG       0.17E+00    1.6     0.04834660       -69.4802034898 -5.09E+00

  Trace(PS):                                   60.0000000000
  Electronic density on regular grids:        -59.9999999986        0.0000000014
  Core density on regular grids:               59.9999999963       -0.0000000037
  Total charge density on r-space grids:       -0.0000000023
  Total charge density g-space grids:          -0.0000000023

     4 OT LS       0.87E-01    1.3                      -69.7087850518

  Trace(PS):                                   60.0000000000
  Electronic density on regular grids:        -59.9999999990        0.0000000010
  Core density on regular grids:               59.9999999963       -0.0000000037
  Total charge density on r-space grids:       -0.0000000027
  Total charge density g-space grids:          -0.0000000027

     5 OT CG       0.87E-01    1.5     0.03642094       -71.0697112633 -1.59E+00

  Trace(PS):                                   60.0000000000
  Electronic density on regular grids:        -59.9999999990        0.0000000010
  Core density on regular grids:               59.9999999963       -0.0000000037
  Total charge density on r-space grids:       -0.0000000028
  Total charge density g-space grids:          -0.0000000028

     6 OT LS       0.10E+00    1.3                      -72.1001556864

  Trace(PS):                                   60.0000000000
  Electronic density on regular grids:        -59.9999999990        0.0000000010
  Core density on regular grids:               59.9999999963       -0.0000000037
  Total charge density on r-space grids:       -0.0000000028
  Total charge density g-space grids:          -0.0000000028

     7 OT CG       0.10E+00    1.6     0.02110709       -72.0772092436 -1.01E+00

  Trace(PS):                                   60.0000000000
  Electronic density on regular grids:        -59.9999999990        0.0000000010
  Core density on regular grids:               59.9999999963       -0.0000000037
  Total charge density on r-space grids:       -0.0000000027
  Total charge density g-space grids:          -0.0000000027

     8 OT LS       0.72E-01    1.3                      -72.2303827557

  Trace(PS):                                   60.0000000000
  Electronic density on regular grids:        -59.9999999990        0.0000000010
  Core density on regular grids:               59.9999999963       -0.0000000037
  Total charge density on r-space grids:       -0.0000000028
  Total charge density g-space grids:          -0.0000000028

     9 OT CG       0.72E-01    1.6     0.01548167       -72.2690691574 -1.92E-01

  Trace(PS):                                   60.0000000000
  Electronic density on regular grids:        -59.9999999990        0.0000000010
  Core density on regular grids:               59.9999999963       -0.0000000037
  Total charge density on r-space grids:       -0.0000000028
  Total charge density g-space grids:          -0.0000000028

    10 OT LS       0.73E-01    1.3                      -72.4051857289

  Trace(PS):                                   60.0000000000
  Electronic density on regular grids:        -59.9999999990        0.0000000010
  Core density on regular grids:               59.9999999963       -0.0000000037
  Total charge density on r-space grids:       -0.0000000028
  Total charge density g-space grids:          -0.0000000028

    11 OT CG       0.73E-01    1.6     0.00776197       -72.4051653677 -1.36E-01

  Trace(PS):                                   60.0000000000
  Electronic density on regular grids:        -59.9999999991        0.0000000009
  Core density on regular grids:               59.9999999963       -0.0000000037
  Total charge density on r-space grids:       -0.0000000028
  Total charge density g-space grids:          -0.0000000028

    12 OT LS       0.10E+00    1.3                      -72.4490636035

  Trace(PS):                                   60.0000000000
  Electronic density on regular grids:        -59.9999999991        0.0000000009
  Core density on regular grids:               59.9999999963       -0.0000000037
  Total charge density on r-space grids:       -0.0000000028
  Total charge density g-space grids:          -0.0000000028

    13 OT CG       0.10E+00    1.6     0.00580942       -72.4531437933 -4.80E-02

  Trace(PS):                                   60.0000000000
  Electronic density on regular grids:        -59.9999999991        0.0000000009
  Core density on regular grids:               59.9999999963       -0.0000000037
  Total charge density on r-space grids:       -0.0000000028
  Total charge density g-space grids:          -0.0000000028

    14 OT LS       0.17E+00    1.3                      -72.4901659668

  Trace(PS):                                   60.0000000000
  Electronic density on regular grids:        -59.9999999991        0.0000000009
  Core density on regular grids:               59.9999999963       -0.0000000037
  Total charge density on r-space grids:       -0.0000000028
  Total charge density g-space grids:          -0.0000000028

    15 OT CG       0.17E+00    1.6     0.00556522       -72.4954815498 -4.23E-02

  Trace(PS):                                   60.0000000000
  Electronic density on regular grids:        -59.9999999991        0.0000000009
  Core density on regular grids:               59.9999999963       -0.0000000037
  Total charge density on r-space grids:       -0.0000000028
  Total charge density g-space grids:          -0.0000000028

    16 OT LS       0.12E+00    1.3                      -72.5203506378

  Trace(PS):                                   60.0000000000
  Electronic density on regular grids:        -59.9999999991        0.0000000009
  Core density on regular grids:               59.9999999963       -0.0000000037
  Total charge density on r-space grids:       -0.0000000028
  Total charge density g-space grids:          -0.0000000028

    17 OT CG       0.12E+00    1.6     0.00614303       -72.5246892579 -2.92E-02

  Trace(PS):                                   60.0000000000
  Electronic density on regular grids:        -59.9999999991        0.0000000009
  Core density on regular grids:               59.9999999963       -0.0000000037
  Total charge density on r-space grids:       -0.0000000028
  Total charge density g-space grids:          -0.0000000028

    18 OT LS       0.22E+00    1.3                      -72.5761507519

  Trace(PS):                                   60.0000000000
  Electronic density on regular grids:        -59.9999999991        0.0000000009
  Core density on regular grids:               59.9999999963       -0.0000000037
  Total charge density on r-space grids:       -0.0000000028
  Total charge density g-space grids:          -0.0000000028

    19 OT CG       0.22E+00    1.6     0.01065489       -72.5673098027 -4.26E-02

  Trace(PS):                                   60.0000000000
  Electronic density on regular grids:        -59.9999999990        0.0000000010
  Core density on regular grids:               59.9999999963       -0.0000000037
  Total charge density on r-space grids:       -0.0000000027
  Total charge density g-space grids:          -0.0000000027

    20 OT LS       0.95E-02    1.3                      -71.2352782573

  Trace(PS):                                   60.0000000000
  Electronic density on regular grids:        -59.9999999991        0.0000000009
  Core density on regular grids:               59.9999999963       -0.0000000037
  Total charge density on r-space grids:       -0.0000000028
  Total charge density g-space grids:          -0.0000000028

    21 OT CG       0.95E-02    1.6     0.01088568       -72.5707742093 -3.46E-03

  Trace(PS):                                   60.0000000000
  Electronic density on regular grids:        -59.9999999991        0.0000000009
  Core density on regular grids:               59.9999999963       -0.0000000037
  Total charge density on r-space grids:       -0.0000000028
  Total charge density g-space grids:          -0.0000000028

    22 OT LS       0.38E-01    1.3                      -72.5874087684

  Trace(PS):                                   60.0000000000
  Electronic density on regular grids:        -59.9999999991        0.0000000009
  Core density on regular grids:               59.9999999963       -0.0000000037
  Total charge density on r-space grids:       -0.0000000028
  Total charge density g-space grids:          -0.0000000028

    23 OT CG       0.38E-01    1.6     0.00742116       -72.6271543668 -5.64E-02

  Trace(PS):                                   60.0000000000
  Electronic density on regular grids:        -59.9999999991        0.0000000009
  Core density on regular grids:               59.9999999963       -0.0000000037
  Total charge density on r-space grids:       -0.0000000028
  Total charge density g-space grids:          -0.0000000028

    24 OT LS       0.15E+00    1.3                      -72.6571961397

  Trace(PS):                                   60.0000000000
  Electronic density on regular grids:        -59.9999999990        0.0000000010
  Core density on regular grids:               59.9999999963       -0.0000000037
  Total charge density on r-space grids:       -0.0000000028
  Total charge density g-space grids:          -0.0000000028

    25 OT CG       0.15E+00    1.6     0.00709063       -72.7190744652 -9.19E-02

  Trace(PS):                                   60.0000000000
  Electronic density on regular grids:        -59.9999999990        0.0000000010
  Core density on regular grids:               59.9999999963       -0.0000000037
  Total charge density on r-space grids:       -0.0000000027
  Total charge density g-space grids:          -0.0000000027

    26 OT LS       0.25E+00    1.3                      -72.8209313108

  Trace(PS):                                   60.0000000000
  Electronic density on regular grids:        -59.9999999990        0.0000000010
  Core density on regular grids:               59.9999999963       -0.0000000037
  Total charge density on r-space grids:       -0.0000000027
  Total charge density g-space grids:          -0.0000000027

    27 OT CG       0.25E+00    1.6     0.01161350       -72.8229017511 -1.04E-01

  Trace(PS):                                   60.0000000000
  Electronic density on regular grids:        -59.9999999990        0.0000000010
  Core density on regular grids:               59.9999999963       -0.0000000037
  Total charge density on r-space grids:       -0.0000000027
  Total charge density g-space grids:          -0.0000000027

    28 OT LS       0.26E-01    1.3                      -71.7931678507

  Trace(PS):                                   60.0000000000
  Electronic density on regular grids:        -59.9999999990        0.0000000010
  Core density on regular grids:               59.9999999963       -0.0000000037
  Total charge density on r-space grids:       -0.0000000027
  Total charge density g-space grids:          -0.0000000027

    29 OT CG       0.26E-01    1.6     0.01265246       -72.8368591651 -1.40E-02

  Trace(PS):                                   60.0000000000
  Electronic density on regular grids:        -59.9999999990        0.0000000010
  Core density on regular grids:               59.9999999963       -0.0000000037
  Total charge density on r-space grids:       -0.0000000027
  Total charge density g-space grids:          -0.0000000027

    30 OT LS       0.61E-01    1.3                      -72.8875439695

  Trace(PS):                                   60.0000000000
  Electronic density on regular grids:        -59.9999999990        0.0000000010
  Core density on regular grids:               59.9999999963       -0.0000000037
  Total charge density on r-space grids:       -0.0000000027
  Total charge density g-space grids:          -0.0000000027

    31 OT CG       0.61E-01    1.6     0.00445815       -72.9108396725 -7.40E-02

  Trace(PS):                                   60.0000000000
  Electronic density on regular grids:        -59.9999999990        0.0000000010
  Core density on regular grids:               59.9999999963       -0.0000000037
  Total charge density on r-space grids:       -0.0000000027
  Total charge density g-space grids:          -0.0000000027

    32 OT LS       0.16E+00    1.3                      -72.9252906856

  Trace(PS):                                   60.0000000000
  Electronic density on regular grids:        -59.9999999990        0.0000000010
  Core density on regular grids:               59.9999999963       -0.0000000037
  Total charge density on r-space grids:       -0.0000000027
  Total charge density g-space grids:          -0.0000000027

    33 OT CG       0.16E+00    1.6     0.00471084       -72.9341392799 -2.33E-02

  Trace(PS):                                   60.0000000000
  Electronic density on regular grids:        -59.9999999990        0.0000000010
  Core density on regular grids:               59.9999999963       -0.0000000037
  Total charge density on r-space grids:       -0.0000000028
  Total charge density g-space grids:          -0.0000000028

    34 OT LS       0.11E+00    1.3                      -72.9484439652

  Trace(PS):                                   60.0000000000
  Electronic density on regular grids:        -59.9999999990        0.0000000010
  Core density on regular grids:               59.9999999963       -0.0000000037
  Total charge density on r-space grids:       -0.0000000027
  Total charge density g-space grids:          -0.0000000027

    35 OT CG       0.11E+00    1.6     0.00372830       -72.9526647570 -1.85E-02

  Trace(PS):                                   60.0000000000
  Electronic density on regular grids:        -59.9999999990        0.0000000010
  Core density on regular grids:               59.9999999963       -0.0000000037
  Total charge density on r-space grids:       -0.0000000027
  Total charge density g-space grids:          -0.0000000027

    36 OT LS       0.13E+00    1.3                      -72.9663479362

  Trace(PS):                                   60.0000000000
  Electronic density on regular grids:        -59.9999999990        0.0000000010
  Core density on regular grids:               59.9999999963       -0.0000000037
  Total charge density on r-space grids:       -0.0000000027
  Total charge density g-space grids:          -0.0000000027

    37 OT CG       0.13E+00    1.6     0.00297777       -72.9667919254 -1.41E-02

  Trace(PS):                                   60.0000000000
  Electronic density on regular grids:        -59.9999999990        0.0000000010
  Core density on regular grids:               59.9999999963       -0.0000000037
  Total charge density on r-space grids:       -0.0000000028
  Total charge density g-space grids:          -0.0000000028

    38 OT LS       0.13E+00    1.3                      -72.9753401949

  Trace(PS):                                   60.0000000000
  Electronic density on regular grids:        -59.9999999990        0.0000000010
  Core density on regular grids:               59.9999999963       -0.0000000037
  Total charge density on r-space grids:       -0.0000000028
  Total charge density g-space grids:          -0.0000000028

    39 OT CG       0.13E+00    1.6     0.00223421       -72.9753616309 -8.57E-03

  Trace(PS):                                   60.0000000000
  Electronic density on regular grids:        -59.9999999990        0.0000000010
  Core density on regular grids:               59.9999999963       -0.0000000037
  Total charge density on r-space grids:       -0.0000000028
  Total charge density g-space grids:          -0.0000000028

    40 OT LS       0.10E+00    1.3                      -72.9790124761

  *** SCF run NOT converged ***


  Electronic density on regular grids:        -59.9999999990        0.0000000010
  Core density on regular grids:               59.9999999963       -0.0000000037
  Total charge density on r-space grids:       -0.0000000028
  Total charge density g-space grids:          -0.0000000028

  Overlap energy of the core charge distribution:               0.00000110090689
  Self energy of the core charge distribution:               -188.92753221440759
  Core Hamiltonian energy:                                     55.84440745640840
  Hartree energy:                                              83.01100130322550
  Exchange-correlation energy:                                  0.00000000000000
  Hartree-Fock Exchange energy:                               -22.90689012220201

  Total energy:                                               -72.97901247606882

  outer SCF iter =    1 RMS gradient =   0.22E-02 energy =        -72.9790124761

  ----------------------------------- OT ---------------------------------------

  Allowing for rotations:  F
  Optimizing orbital energies:  F
  Minimizer      : CG                  : conjugate gradient
  Preconditioner : FULL_SINGLE_INVERSE : inversion of H + eS - 2*(Sc)(c^T*H*c+const)(Sc)^T
  Precond_solver : DEFAULT
  Line search    : 2PNT                : 2 energies, one gradient
  stepsize       :    0.08000000
  energy_gap     :    0.08000000

  eps_taylor     :   0.10000E-15
  max_taylor     :             4

  mixed_precision    : F

  ----------------------------------- OT ---------------------------------------

  Step     Update method      Time    Convergence         Total energy    Change
  ------------------------------------------------------------------------------

  Trace(PS):                                   60.0000000000
  Electronic density on regular grids:        -59.9999999990        0.0000000010
  Core density on regular grids:               59.9999999963       -0.0000000037
  Total charge density on r-space grids:       -0.0000000028
  Total charge density g-space grids:          -0.0000000028

     1 OT CG       0.80E-01    3.0     0.00130391       -72.9792459245 -3.88E-03

  Trace(PS):                                   60.0000000000
  Electronic density on regular grids:        -59.9999999991        0.0000000009
  Core density on regular grids:               59.9999999963       -0.0000000037
  Total charge density on r-space grids:       -0.0000000028
  Total charge density g-space grids:          -0.0000000028

     2 OT LS       0.29E+00    1.3                      -72.9810639043

  Trace(PS):                                   60.0000000000
  Electronic density on regular grids:        -59.9999999990        0.0000000010
  Core density on regular grids:               59.9999999963       -0.0000000037
  Total charge density on r-space grids:       -0.0000000028
  Total charge density g-space grids:          -0.0000000028

     3 OT CG       0.29E+00    1.6     0.00057607       -72.9830996752 -3.85E-03

  Trace(PS):                                   60.0000000000
  Electronic density on regular grids:        -59.9999999990        0.0000000010
  Core density on regular grids:               59.9999999963       -0.0000000037
  Total charge density on r-space grids:       -0.0000000028
  Total charge density g-space grids:          -0.0000000028

     4 OT LS       0.27E+00    1.3                      -72.9837962681

  Trace(PS):                                   60.0000000000
  Electronic density on regular grids:        -59.9999999990        0.0000000010
  Core density on regular grids:               59.9999999963       -0.0000000037
  Total charge density on r-space grids:       -0.0000000028
  Total charge density g-space grids:          -0.0000000028

     5 OT CG       0.27E+00    1.6     0.00028227       -72.9838000989 -7.00E-04

  Trace(PS):                                   60.0000000000
  Electronic density on regular grids:        -59.9999999990        0.0000000010
  Core density on regular grids:               59.9999999963       -0.0000000037
  Total charge density on r-space grids:       -0.0000000028
  Total charge density g-space grids:          -0.0000000028

     6 OT LS       0.34E+00    1.3                      -72.9840032346

  Trace(PS):                                   60.0000000000
  Electronic density on regular grids:        -59.9999999990        0.0000000010
  Core density on regular grids:               59.9999999963       -0.0000000037
  Total charge density on r-space grids:       -0.0000000028
  Total charge density g-space grids:          -0.0000000028

     7 OT CG       0.34E+00    1.6     0.00014586       -72.9840124022 -2.12E-04

  Trace(PS):                                   60.0000000000
  Electronic density on regular grids:        -59.9999999990        0.0000000010
  Core density on regular grids:               59.9999999963       -0.0000000037
  Total charge density on r-space grids:       -0.0000000028
  Total charge density g-space grids:          -0.0000000028

[...]
      12     H        1          1.081769                 -0.081769
      13     H        1          1.081043                 -0.081043
      14     H        1          1.088422                 -0.088422
      15     C        2          3.905487                  0.094513
      16     C        2          3.836468                  0.163532
      17     C        2          3.890983                  0.109017
      18     C        2          3.989125                  0.010875
      19     H        1          1.081776                 -0.081776
      20     H        1          1.076192                 -0.076192
      21     C        2          3.966480                  0.033520
      22     C        2          3.937318                  0.062682
      23     H        1          1.074916                 -0.074916
      24     H        1          1.071878                 -0.071878
 # Total charge                 60.000000                  0.000000


 !-----------------------------------------------------------------------------!
                           Hirschfeld Charges

  #Atom  Element  Kind  Ref Charge     Population                     Net charge
      1       H      1       1.000          0.970                          0.030
      2       C      2       4.000          4.030                         -0.030
      3       C      2       4.000          4.029                         -0.029
      4       H      1       1.000          0.968                          0.032
      5       C      2       4.000          4.034                         -0.034
      6       H      1       1.000          0.967                          0.033
      7       C      2       4.000          4.034                         -0.034
      8       H      1       1.000          0.967                          0.033
      9       C      2       4.000          4.036                         -0.036
     10       H      1       1.000          0.968                          0.032
     11       C      2       4.000          4.030                         -0.030
     12       H      1       1.000          0.966                          0.034
     13       H      1       1.000          0.970                          0.030
     14       H      1       1.000          0.968                          0.032
     15       C      2       4.000          4.030                         -0.030
     16       C      2       4.000          4.029                         -0.029
     17       C      2       4.000          4.030                         -0.030
     18       C      2       4.000          4.034                         -0.034
     19       H      1       1.000          0.966                          0.034
     20       H      1       1.000          0.967                          0.033
     21       C      2       4.000          4.036                         -0.036
     22       C      2       4.000          4.034                         -0.034
     23       H      1       1.000          0.968                          0.032
     24       H      1       1.000          0.967                          0.033

  Total Charge                                                             0.001
 !-----------------------------------------------------------------------------!
 
 
 RI-RPA section
 --------------
 
  Used number of processes per group:                                          1
  Maximum allowed memory usage per MPI processes:                     1800.00 MB
  GPW_INFO| Density cutoff [a.u.]:                                         150.0
  GPW_INFO| Relative density cutoff [a.u.]:                                 25.0
  RI_INFO| Cholesky decomposition group size:                                  8
  RI_INFO| Occupied  basis set size:                                          30
  RI_INFO| Virtual   basis set size:                                         486
  RI_INFO| Auxiliary basis set size:                                        1272
  RI_INFO| Total memory for (ia|K) integrals:                          141.49 MB
  RI_INFO| Minimum required memory per MPI process:                      4.45 MB
  RI_INFO| Available memory per MPI process:                           986.61 MB
  RI_INFO| Group size for frequency integration:                               8
  INTEG_INFO| MINIMAX quadrature
  INTEG_INFO| Number of integration points:                                    8
  INTEG_INFO| Number of integration points per RPA group:                      1
  MATRIX_INFO| Number row processes:                                           8
  MATRIX_INFO| Number column processes:                                        1
  MATRIX_INFO| Row block size:                                               911
  MATRIX_INFO| Column block size:                                            636
  INTEG_INFO| Range for the minimax approximation:                       24.6136
  INTEG_INFO| Minimax parameters:                    Weights           Abscissas
                                                2.0197446783        0.2469972301
                                                2.5820821663        0.8091584415
                                                3.9245631822        1.6022366095
                                                6.5802917449        2.8792875656
                                               11.7221513429        5.0954972267
                                               22.3162521054        9.1795151617
                                               49.3752804262       17.5275976612
                                              182.4859964212       41.0972642350
  PERFORMANCE| PDGEMM flop rate (Gflops / MPI rank):                       10.77
 
  Total RI-RPA Time=                                                 2518.840450
  RI-RPA energy  =                                             -2.20997811583446
 

  HFX_MEM_INFO| Est. max. program size before HFX [MB's]:                    416
  HFX_MEM_INFO| Number of cart. primitive ERI's calculated:          17328473991
  HFX_MEM_INFO| Number of sph. ERI's calculated:                      6202109959
  HFX_MEM_INFO| Number of sph. ERI's stored in-core:                  6202109959
  HFX_MEM_INFO| Number of sph. ERI's stored on disk:                           0
  HFX_MEM_INFO| Number of sph. ERI's calculated on the fly:                    0
  HFX_MEM_INFO| Total memory consumption ERI's RAM [MB's]:                 11188
  HFX_MEM_INFO| Whereof max-vals [MB's]:                                      25
  HFX_MEM_INFO| Total compression factor ERI's RAM:                         4.23
  HFX_MEM_INFO| Total memory consumption ERI's disk [MB's]:                    0
  HFX_MEM_INFO| Total compression factor ERI's disk:                        0.00
  HFX_MEM_INFO| Size of density/Fock matrix [MB's]:                            2
  HFX_MEM_INFO| Size of buffers [MB's]:                                        0
  HFX_MEM_INFO| Est. max. program size after HFX  [MB's]:                    416

  Total EXX Time=                                                      10.687744
  EXX energy  =                                               -22.91345132816214

 ENERGY| Total FORCE_EVAL ( QS ) energy (a.u.):              -75.194064092066156


 -------------------------------------------------------------------------------
 -                                                                             -
 -                                DBCSR STATISTICS                             -
 -                                                                             -
 -------------------------------------------------------------------------------
 COUNTER                                      CPU                  ACC      ACC%
 number of processed stacks                 37303                    0       0.0
 matmuls inhomo. stacks                         0                    0       0.0
 matmuls total                            1301573                    0       0.0
 flops  14 x   30 x   30                   604800                    0       0.0
 flops  29 x   30 x   30                  1252800                    0       0.0
 flops  30 x   30 x   30                 17982000                    0       0.0
 flops  14 x   14 x   30                 56871360                    0       0.0
 flops  30 x   30 x   58                 62222400                    0       0.0
 flops  30 x   30 x   71                 76168800                    0       0.0
 flops  30 x    6 x   14                 76930560                    0       0.0
 flops  58 x   30 x   30                 86025600                    0       0.0
 flops  58 x   30 x   58                103342080                    0       0.0
 flops  71 x   30 x   30                105307200                    0       0.0
 flops  29 x   14 x   30                105722400                    0       0.0
 flops  14 x   29 x   30                111763680                    0       0.0
 flops  58 x   30 x   71                126504960                    0       0.0
 flops  71 x   30 x   58                126504960                    0       0.0
 flops  71 x   30 x   71                154859520                    0       0.0
 flops  30 x    6 x   29                159356160                    0       0.0
 flops  29 x   29 x   30                244024560                    0       0.0
 flops  14 x   30 x   14               2316531840                    0       0.0
 flops  29 x   30 x   14               4809248640                    0       0.0
 flops  14 x   30 x   29               4809248640                    0       0.0
 flops  30 x   32 x   14               6154444800                    0       0.0
 flops  29 x   30 x   29               9962015040                    0       0.0
 flops  30 x   32 x   29              12748492800                    0       0.0
 flops total                          42415425600                    0       0.0
 marketing flops                      42890241024
 -------------------------------------------------------------------------------

 -------------------------------------------------------------------------------
 ----                             MULTIGRID INFO                            ----
 -------------------------------------------------------------------------------
 count for grid        1:         160568          cutoff [a.u.]          200.00
 count for grid        2:         155146          cutoff [a.u.]           66.67
 count for grid        3:          58828          cutoff [a.u.]           22.22
 count for grid        4:          10440          cutoff [a.u.]            7.41
 total gridlevel count  :         384982

 -------------------------------------------------------------------------------
 -                                                                             -
 -                         MESSAGE PASSING PERFORMANCE                         -
 -                                                                             -
 -------------------------------------------------------------------------------

 ROUTINE             CALLS  TOT TIME [s]  AVE VOLUME [Bytes]  PERFORMANCE [MB/s]
 MP_Group               10         0.000
 MP_Bcast             3325         0.061              19814.             1084.15
 MP_Allreduce         4932        41.797               4418.                0.52
 MP_Gather               4         0.001               1792.                8.21
 MP_Sync               356         1.520
 MP_Alltoall          4143        19.408            1674074.              357.37
 MP_SendRecv           147         0.405             101257.               36.78
 MP_ISendRecv        19152         0.035              22286.            12268.89
 MP_Wait             95680         2.210
 MP_comm_split          47        57.784
 MP_ISend            36204         5.307              41480.              282.95
 MP_IRecv            36198         0.141              40664.            10455.12
 MP_Recv                21         0.000              16512.             1995.04
 MP_Memory           21628         4.325
 -------------------------------------------------------------------------------


 -------------------------------------------------------------------------------
 -                                                                             -
 -                           R E F E R E N C E S                               -
 -                                                                             -
 -------------------------------------------------------------------------------
 
 CP2K version 2.6, the CP2K developers group (2014).
 CP2K is freely available from http://www.cp2k.org/ .

 Borstnik, U; VandeVondele, J; Weber, V; Hutter, J. 
 PARALLEL COMPUTING, 40 (5-6), 47-58 (2014). 
 Sparse matrix multiplication: The distributed block-compressed sparse
 row library.
 http://dx.doi.org/10.1016/j.parco.2014.03.012


 Hutter, J; Iannuzzi, M; Schiffmann, F; VandeVondele, J. 
 WILEY INTERDISCIPLINARY REVIEWS-COMPUTATIONAL MOLECULAR SCIENCE, 4 (1), 15-25 (2014). 
 CP2K: atomistic simulations of condensed matter systems.
 http://dx.doi.org/10.1002/wcms.1159


 Del Ben, M; Hutter, J; VandeVondele, J. 
 JOURNAL OF CHEMICAL THEORY AND COMPUTATION, 9 (6), 2654-2671 (2013). 
 Electron Correlation in the Condensed Phase from a Resolution of
 Identity Approach Based on the Gaussian and Plane Waves Scheme.
 http://dx.doi.org/10.1021/ct4002202


 Del Ben, M; Hutter, J; VandeVondele, J. 
 JOURNAL OF CHEMICAL THEORY AND COMPUTATION, 8 (11), 4177-4188 (2012). 
 Second-Order Moller-Plesset Perturbation Theory in the Condensed Phase:
 An Efficient and Massively Parallel Gaussian and Plane Waves Approach.
 http://dx.doi.org/10.1021/ct300531w


 Guidon, M; Hutter, J; VandeVondele, J. 
 JOURNAL OF CHEMICAL THEORY AND COMPUTATION, 5 (11), 3010-3021 (2009). 
 Robust Periodic Hartree-Fock Exchange for Large-Scale Simulations Using
 Gaussian Basis Sets.
 http://dx.doi.org/10.1021/ct900494g


 Guidon, M; Schiffmann, F; Hutter, J; VandeVondele, J. 
 JOURNAL OF CHEMICAL PHYSICS, 128 (21), 214104 (2008). 
 Ab initio molecular dynamics using hybrid density functionals.
 http://dx.doi.org/10.1063/1.2931945


 Genovese, L; Deutsch, T; Goedecker, S. 
 JOURNAL OF CHEMICAL PHYSICS, 127 (5), 054704 (2007). 
 Efficient and accurate three-dimensional Poisson solver for surface
 problems.
 http://dx.doi.org/10.1063/1.2754685


 Genovese, L; Deutsch, T; Neelov, A; Goedecker, S; Beylkin, G. 
 JOURNAL OF CHEMICAL PHYSICS, 125 (7), 074105 (2006). 
 Efficient solution of Poisson's equation with free boundary conditions.
 http://dx.doi.org/10.1063/1.2335442


 Krack, M. 
 THEORETICAL CHEMISTRY ACCOUNTS, 114 (1-3), 145-152 (2005). 
 Pseudopotentials for H to Kr optimized for gradient-corrected
 exchange-correlation functionals.
 http://dx.doi.org/10.1007/s00214-005-0655-y


 VandeVondele, J; Krack, M; Mohamed, F; Parrinello, M; Chassaing, T;
 Hutter, J. COMPUTER PHYSICS COMMUNICATIONS, 167 (2), 103-128 (2005). 
 QUICKSTEP: Fast and accurate density functional calculations using a
 mixed Gaussian and plane waves approach.
 http://dx.doi.org/10.1016/j.cpc.2004.12.014


 Frigo, M; Johnson, SG. 
 PROCEEDINGS OF THE IEEE, 93 (2), 216-231 (2005). 
 The design and implementation of FFTW3.
 http://dx.doi.org/10.1109/JPROC.2004.840301


 VandeVondele, J; Hutter, J. 
 JOURNAL OF CHEMICAL PHYSICS, 118 (10), 4365-4369 (2003). 
 An efficient orbital transformation method for electronic structure
 calculations.
 http://dx.doi.org/10.1063/1.1543154


 Hartwigsen, C; Goedecker, S; Hutter, J. 
 PHYSICAL REVIEW B, 58 (7), 3641-3662 (1998). 
 Relativistic separable dual-space Gaussian pseudopotentials from H to Rn.
 http://dx.doi.org/10.1103/PhysRevB.58.3641


 Lippert, G; Hutter, J; Parrinello, M. 
 MOLECULAR PHYSICS, 92 (3), 477-487 (1997). 
 A hybrid Gaussian and plane wave density functional scheme.
 http://dx.doi.org/10.1080/002689797170220


 Goedecker, S; Teter, M; Hutter, J. 
 PHYSICAL REVIEW B, 54 (3), 1703-1710 (1996). 
 Separable dual-space Gaussian pseudopotentials.
 http://dx.doi.org/10.1103/PhysRevB.54.1703


 -------------------------------------------------------------------------------
 -                                                                             -
 -                                T I M I N G                                  -
 -                                                                             -
 -------------------------------------------------------------------------------
 SUBROUTINE                       CALLS  ASD         SELF TIME        TOTAL TIME
                                MAXIMUM       AVERAGE  MAXIMUM  AVERAGE  MAXIMUM
 CP2K                                 1  1.0    0.031    0.038 2627.332 2627.368
 qs_energies_scf                      1  2.0    0.000    0.000 2627.028 2627.058
 mp2_main                             1  3.0    0.001    0.001 2529.660 2529.689
 mp2_gpw_main                         1  4.0    0.307    5.499 2518.856 2518.900
 mp2_ri_gpw_compute_in                1  5.0   15.808   23.192 1921.187 2510.082
 fft_wrap_pw1pw2                   1090  9.0    0.026    0.029  648.670 1425.276
 calculate_Lmin1                      1  6.0  797.008 1093.754 1413.581 1413.597
 calculate_Lmin1_loop_lm              1  7.0    0.247    0.264  616.528 1413.121
 pw_poisson_solve                    99  8.2  177.636  483.801  623.126 1411.165
 fft_wrap_pw1pw2_150                281 10.0  295.111  721.828  549.477 1239.758
 calculate_Lmin1_pot_lm              20  8.0    0.286    0.309  479.066 1143.525
 mp2_ri_gpw_compute_in_loop           1  6.0    0.000    0.000  490.374 1072.229
 rpa_ri_compute_en                    1  5.0  581.867  821.018  587.561  826.711
 mp2_ri_gpw_compute_in_pot           20  7.0    0.145    0.202  333.454  719.334
 pw_scatter_s                       240 11.4  235.263  572.537  235.263  572.537
 calculate_wavefunction              40  7.5    0.484    0.524  226.837  540.999
 ps_wavelet_solve                    99  9.2  148.489  357.875  185.772  458.618
 potential_pw2rs                     70  9.4    0.253    0.298  122.402  330.313
 cp2k_distribution_to_z_slices       99  9.2   82.594  222.911   82.594  222.911
 fft_wrap_pw1pw2_50                  80 10.2   38.125  115.277   79.902  219.264
 integrate_v_rspace                  50  8.6    9.017    9.972   69.699  178.135
 mp2_ri_gpw_compute_in_int           20  7.0    0.000    0.000   65.721  174.119
 scale_and_distribute               198 10.2   37.283  158.136   37.283  158.136
 scf_env_do_scf                       1  3.0    0.000    0.000   95.935   95.937
 scf_env_do_scf_inner_loop           59  4.0    0.002    0.004   81.835   81.868
 qs_ks_update_qs_env                 61  5.0    0.000    0.001   79.722   79.764
 rebuild_ks_matrix                   59  6.0    0.000    0.000   79.716   79.758
 qs_ks_build_kohn_sham_matrix        59  7.0    0.025    0.042   79.716   79.757
 pw_gather_s                        281 10.8   34.459   72.762   34.459   72.762
 ps_wavelet_create                    2  9.5    0.000    0.000   22.252   72.026
 RS_z_slice_distribution              2 10.5   22.252   72.026   22.252   72.026
 integrate_four_center               60  8.9    1.935    3.316   66.746   66.901
 integrate_four_center_main          60  9.9    0.019    0.022   62.613   63.695
 integrate_four_center_bin         4140 10.9   62.594   63.675   62.594   63.675
 hfx_ks_matrix                       59  8.0    0.001    0.002   56.054   56.180
 -------------------------------------------------------------------------------

  **** **** ******  **  PROGRAM ENDED AT                 2015-03-10 15:53:01.179
 ***** ** ***  *** **   PROGRAM RAN ON                                      n260
 **    ****   ******    PROGRAM RAN BY                                     bja39
 ***** **    ** ** **   PROGRAM PROCESS ID                                 31988
  **** **  *******  **  PROGRAM STOPPED IN       /home/dlambrecht/bja39/cp2k/mp2
