/home/ben/opt/apps/qchem/trunk_intel_release/exe/qcprog.exe .rpa.in.13300.qcin.1 /home/ben/scratch/qchem/qchem13300/
                  Welcome to Q-Chem
     A Quantum Leap Into The Future Of Chemistry


 Q-Chem 4.3 (beta), Q-Chem, Inc., Pleasanton, CA (2015)

 Y. Shao,  Z. Gan,  E. Epifanovsky,  A. T. B. Gilbert,  M. Wormit,  
 J. Kussmann,  A. W. Lange,  A. Behn,  J. Deng,  X. Feng,  D. Ghosh,  
 M. Goldey,  P. R. Horn,  L. D. Jacobson,  I. Kaliman,  R. Z. Khaliullin,  
 T. Kus,  A. Landau,  J. Liu,  E. I. Proynov,  Y. M. Rhee,  R. M. Richard,  
 M. A. Rohrdanz,  R. P. Steele,  E. J. Sundstrom,  H. L. Woodcock III,  
 P. M. Zimmerman,  D. Zuev,  B. Albrecht,  E. Alguire,  B. Austin,  
 S. A. Baeppler,  G. J. O. Beran,  Y. A. Bernard,  E. Berquist,  
 K. Brandhorst,  K. B. Bravaya,  S. T. Brown,  D. Casanova,  C.-M. Chang,  
 Y. Chen,  S. H. Chien,  K. D. Closser,  D. L. Crittenden,  M. Diedenhofen,  
 R. A. DiStasio Jr.,  H. Do,  A. D. Dutoi,  R. G. Edgar,  P.-T. Fang,  
 S. Fatehi,  Q. Feng,  L. Fusti-Molnar,  A. Ghysels,  
 A. Golubeva-Zadorozhnaya,  J. Gomes,  A. Gunina,  M. W. D. Hanson-Heine,  
 P. H. P. Harbach,  A. W. Hauser,  E. G. Hohenstein,  Z. C. Holden,  K. Hui,  
 T.-C. Jagau,  H. Ji,  B. Kaduk,  K. Khistyaev,  Jaehoon Kim,  Jihan Kim,  
 R. A. King,  P. Klunzinger,  D. Kosenkov,  T. Kowalczyk,  C. M. Krauter,  
 K. U. Lao,  A. Laurent,  K. V. Lawler,  S. Lehtola,  S. V. Levchenko,  
 C. Y. Lin,  Y.-S. Lin,  F. Liu,  E. Livshits,  R. C. Lochan,  A. Luenser,  
 P. Manohar,  S. F. Manzer,  S.-P. Mao,  N. Mardirossian,  A. V. Marenich,  
 L. A. Martinez-Martinez,  S. A. Maurer,  N. J. Mayhall,  K. Nanda,  
 C. M. Oana,  R. Olivares-Amaya,  D. P. O'Neill,  J. A. Parkhill,  
 T. M. Perrine,  R. Peverati,  P. A. Pieniazek,  F. Plasser,  A. Prociuk,  
 D. R. Rehn,  E. Rosta,  N. J. Russ,  N. Sergueev,  S. M. Sharada,  
 S. Sharma,  D. W. Small,  A. Sodt,  T. Stauch,  T. Stein,  D. Stuck,  
 Y.-C. Su,  A. J. W. Thom,  T. Tsuchimochi,  L. Vogt,  O. Vydrov,  T. Wang,  
 M. A. Watson,  J. Wenzel,  A. White,  C. F. Williams,  V. Vanovschi,  
 S. Yeganeh,  S. R. Yost,  Z.-Q. You,  I. Y. Zhang,  X. Zhang,  Y. Zhao,  
 B. R. Brooks,  G. K. L. Chan,  D. M. Chipman,  C. J. Cramer,  
 W. A. Goddard III,  M. S. Gordon,  W. J. Hehre,  A. Klamt,  
 H. F. Schaefer III,  M. W. Schmidt,  C. D. Sherrill,  D. G. Truhlar,  
 A. Warshel,  X. Xu,  A. Aspuru-Guzik,  R. Baer,  A. T. Bell,  N. A. Besley,  
 J.-D. Chai,  A. Dreuw,  B. D. Dunietz,  T. R. Furlani,  S. R. Gwaltney,  
 C.-P. Hsu,  Y. Jung,  J. Kong,  D. S. Lambrecht,  W. Liang,  C. Ochsenfeld,  
 V. A. Rassolov,  L. V. Slipchenko,  J. E. Subotnik,  T. Van Voorhis,  
 J. M. Herbert,  A. I. Krylov,  P. M. W. Gill,  M. Head-Gordon

 Contributors to earlier versions of Q-Chem not listed above: 
 R. D. Adamson,  J. Baker,  E. F. C. Byrd,  A. K. Chakraborty,  C.-L. Cheng,  
 H. Dachsel,  R. J. Doerksen,  G. Hawkins,  A. Heyden,  S. Hirata,  
 G. Kedziora,  F. J. Keil,  C. Kelley,  P. P. Korambath,  W. Kurlancheek,  
 A. M. Lee,  M. S. Lee,  D. Liotard,  I. Lotan,  P. E. Maslen,  N. Nair,  
 D. Neuhauser,  R. Olson,  B. Peters,  J. Ritchie,  N. E. Schultz,  
 N. Shenvi,  A. C. Simmonett,  K. S. Thanthiriwatte,  Q. Wu,  W. Zhang

 Please cite Q-Chem as follows:
 Y. Shao et al., Mol. Phys. 113, 184-215 (2014)
 DOI: 10.1080/00268976.2014.952696

 Q-Chem 4.3.0 for Intel X86 EM64T Linux

 Parts of Q-Chem use Armadillo 4.550.3 (Singapore Sling Deluxe).
 http://arma.sourceforge.net/

 Q-Chem begins on Tue Jun 16 16:09:51 2015  

Host: 
0

     Scratch files written to /home/ben/scratch/qchem/qchem13300//
 Mar2415 |home|ben|opt|apps|qchem|trunk_RNUM -1

Checking the input file for inconsistencies...	...done.

--------------------------------------------------------------
User input:
--------------------------------------------------------------
$comment
    Paraphrased from Q-Chem Manual:
    Sample Random Phase Approximation (RPA), AKA TD-HF.
    Should be roughly comparable to CIS for excitation energies to singlet states,
    but is inferior for triplet states.
    RPA is non-variational
$end

$molecule
0 1
N1
N2 N1 1.1
$end

$rem
jobtype    opt
exchange   omegaB97X-D
basis      6-311++G**
$end

--------------------------------------------------------------
 ----------------------------------------------------------------
             Standard Nuclear Orientation (Angstroms)
    I     Atom           X                Y                Z
 ----------------------------------------------------------------
    1      N       0.0000000000     0.0000000000    -0.5500000000
    2      N       0.0000000000     0.0000000000     0.5500000000
 ----------------------------------------------------------------
 Molecular Point Group                 D*h   NOp =***
 Largest Abelian Subgroup              D2h   NOp =  1
 Nuclear Repulsion Energy =    23.5724387790 hartrees
 There are        7 alpha and        7 beta electrons
 Requested basis set is 6-311++G(d,p)
 There are 12 shells and 44 basis functions

Total QAlloc Memory Limit   2000 MB
Mega-Array Size        61 MB
MEM_STATIC part        62 MB
 A cutoff of  1.0D-11 yielded     78 shell pairs
 There are      1058 function pairs (      1159 Cartesian)
 
 -------------------------------------------------------
 OpenMP Integral Computing Module                       
 Release: version 1.0, May 2013, Q-Chem Inc. Pittsburgh 
 -------------------------------------------------------
 Integral Job Info:
 Integral job number is                      11
 Integral operator is                         1
 short-range coefficients              22203600
 long-range coefficients              100000000
 Omega coefficients                         200
 if combine SR and LR in K              -999999
 Integral screening is                        0
 Integral computing path is                   2
 max size of driver memory is            800000
 size of driver memory is                593474
 size of scratch memory is              2260544
 max col of scratch BK array               1296
 max len of scratch array in speh3          155
 max len of scratch index in speh4           18
 max int batch size is                      520
 min int batch size is                       52
 fixed nKL is                                52
 max L of basis functions is                  2
 order of int derivative is                   0
 number of shells is                         12
 number of basis is                          46
 number of cartesian basis is                46
 number of contracted shell pairs            78
 number of primitive shell pairs            345
 maxK2 (contraction) of shell pair           36
 max number of K2 of shell pair               1
 max number of CS2 of shell pair             21
 max number of PS2 of shell pair             72
 mem total for path MDJ                   10660
 -------------------------------------------------------
 Smallest overlap matrix eigenvalue = 2.15E-04

  Scale SEOQF with 1.000000e-01/1.000000e-01/1.000000e-01

 Standard Electronic Orientation quadrupole field applied
 Nucleus-field energy     =    -0.0000000005 hartrees
 Guess from superposition of atomic densities
 Warning:  Energy on first SCF cycle will be non-variational
 Long-range K will be added via erf
 Coulomb attenuation parameter = 0.2 bohr**(-1)
 A restricted hybrid HF-DFT SCF calculation will be
 performed using Pulay DIIS extrapolation
 Exchange:     0.2220 Hartree-Fock + 1.0000 wB97X-D + LR-HF
 Correlation:  1.0000 wB97X-D
 Using SG-1 standard quadrature grid
 SCF converges when DIIS error is below 1.0E-08
 CPU 0.00 s  wall 0.00 s
 CPU 0.03 s  wall 0.03 s

 Total DFTman time = 0.03 CPUs 0.03 Wall
 ---------------------------------------
  Cycle       Energy         DIIS Error
 ---------------------------------------
    1    -109.6163037926      1.01E-01
 CPU 0.00 s  wall 0.00 s
 CPU 0.03 s  wall 0.03 s

 Total DFTman time = 0.03 CPUs 0.03 Wall
    2    -109.5155864164      3.07E-03
 CPU 0.00 s  wall 0.00 s
 CPU 0.03 s  wall 0.03 s

 Total DFTman time = 0.03 CPUs 0.03 Wall
    3    -109.5177185123      7.92E-04
 CPU 0.00 s  wall 0.00 s
 CPU 0.03 s  wall 0.03 s

 Total DFTman time = 0.03 CPUs 0.03 Wall
    4    -109.5178065380      9.54E-05
 CPU 0.00 s  wall 0.00 s
 CPU 0.03 s  wall 0.03 s

 Total DFTman time = 0.03 CPUs 0.03 Wall
    5    -109.5178108974      2.87E-05
 CPU 0.00 s  wall 0.00 s
 CPU 0.03 s  wall 0.03 s

 Total DFTman time = 0.03 CPUs 0.03 Wall
    6    -109.5178111188      5.68E-06
 CPU 0.00 s  wall 0.00 s
 CPU 0.03 s  wall 0.03 s

 Total DFTman time = 0.03 CPUs 0.03 Wall
    7    -109.5178111402      3.59E-07
 CPU 0.00 s  wall 0.00 s
 CPU 0.03 s  wall 0.03 s

 Total DFTman time = 0.03 CPUs 0.03 Wall
    8    -109.5178111451      2.27E-08
 CPU 0.00 s  wall 0.00 s
 CPU 0.03 s  wall 0.03 s

 Total DFTman time = 0.03 CPUs 0.03 Wall
    9    -109.5178111460      2.90E-09 Convergence criterion met
 ---------------------------------------
 SCF time:  CPU 0.97 s  wall 0.97 s
 SCF   energy in the final basis set = -109.5178111460
 Total energy in the final basis set = -109.5178111460
 Analysis of SCF Wavefunction
 
 --------------------------------------------------------------
 
                    Orbital Energies (a.u.)
 --------------------------------------------------------------
 
 Alpha MOs
 -- Occupied --
-14.543 -14.541  -1.236  -0.652  -0.559  -0.559  -0.526
 -- Virtual --
  0.044   0.044   0.138   0.143   0.160   0.160   0.211   0.235
  0.235   0.325   0.587   0.749   0.788   0.788   0.897   0.897
  0.984   0.995   1.304   1.750   1.750   1.781   1.781   2.242
  2.242   2.580   2.943   2.943   3.234   3.772   3.772   4.051
  4.051   4.289   4.623  35.168  36.398
 --------------------------------------------------------------
 
          Ground-State Mulliken Net Atomic Charges

     Atom                 Charge (a.u.)
  ----------------------------------------
      1 N                     0.000000
      2 N                    -0.000000
  ----------------------------------------
  Sum of atomic charges =     0.000000

 -----------------------------------------------------------------
                    Cartesian Multipole Moments
 -----------------------------------------------------------------
    Charge (ESU x 10^10)
                 0.0000
    Dipole Moment (Debye)
         X       0.0000      Y       0.0000      Z      -0.0000
       Tot       0.0000
    Quadrupole Moments (Debye-Ang)
        XX     -10.2587     XY       0.0000     YY     -10.2587
        XZ      -0.0000     YZ      -0.0000     ZZ     -11.9168
    Octopole Moments (Debye-Ang^2)
       XXX       0.0000    XXY       0.0000    XYY       0.0000
       YYY       0.0000    XXZ      -0.0000    XYZ      -0.0000
       YYZ      -0.0000    XZZ       0.0000    YZZ       0.0000
       ZZZ      -0.0000
    Hexadecapole Moments (Debye-Ang^3)
      XXXX      -8.8221   XXXY       0.0000   XXYY      -2.9407
      XYYY       0.0000   YYYY      -8.8221   XXXZ       0.0000
      XXYZ       0.0000   XYYZ       0.0000   YYYZ       0.0000
      XXZZ      -6.4883   XYZZ       0.0000   YYZZ      -6.4883
      XZZZ      -0.0000   YZZZ      -0.0000   ZZZZ     -32.2956
 -----------------------------------------------------------------
 Calculating analytic gradient of the SCF energy
 Gradient of AOints
            1           2
    1   0.0000000  -0.0000000
    2   0.0000000  -0.0000000
    3  16.5626193 -16.5626193
 CPU 0.00 s  wall 0.00 s
 CPU 0.05 s  wall 0.05 s

 Total DFTman time = 0.05 CPUs 0.05 Wall
 Gradient of SCF Energy
            1           2
    1   0.0000000  -0.0000000
    2   0.0000000  -0.0000000
    3  -0.0233115   0.0233115
 Max gradient component =       2.331E-02
 RMS gradient           =       1.346E-02
 Gradient time:  CPU 0.47 s  wall 0.48 s
 Geometry Optimization Parameters
   NAtoms,    NIC,     NZ,  NCons,   NDum,   NFix, NCnnct, MaxDiis
        2       5       2       0       0       0       0       0


** GEOMETRY OPTIMIZATION IN DELOCALIZED INTERNAL COORDINATES **
   Searching for a Minimum

   Optimization Cycle:   1

                       Coordinates (Angstroms)
     ATOM                X               Y               Z
      1  N         0.0000000000    0.0000000000   -0.5500000000
      2  N         0.0000000000    0.0000000000    0.5500000000
   Point Group: d*h   Number of degrees of freedom:     1


   Energy is   -109.517811146


 Attempting to Generate Delocalized Internal Coordinates

  1 Hessian modes will be used to form the next step
  Hessian Eigenvalues:
     1.767197

 Minimum Search - Taking Simple RFO Step
 Searching for Lamda that Minimizes Along All modes
 Value Taken    Lamda =  -0.00030751
 Step Taken.  Stepsize is  0.013189

                             Maximum     Tolerance    Cnvgd?
         Gradient           0.023312      0.000300      NO
         Displacement       0.013189      0.001200      NO
         Energy change     *********      0.000001      NO


 New Cartesian Coordinates Obtained by Inverse Iteration

 Displacement from previous Coordinates is:  0.009326
 ----------------------------------------------------------------
             Standard Nuclear Orientation (Angstroms)
    I     Atom           X                Y                Z
 ----------------------------------------------------------------
    1      N       0.0000000000     0.0000000000    -0.5465103552
    2      N       0.0000000000     0.0000000000     0.5465103552
 ----------------------------------------------------------------
 Molecular Point Group                 D*h   NOp =***
 Largest Abelian Subgroup              D2h   NOp =  1
 Nuclear Repulsion Energy =    23.7229564284 hartrees
 There are        7 alpha and        7 beta electrons
 Applying Cartesian multipole field
    Component          Value
    ---------          -----
     (2,0,0)        1.00000E-11
     (0,2,0)        2.00000E-11
     (0,0,2)       -3.00000E-11
 Nucleus-field energy     =    -0.0000000004 hartrees
 Requested basis set is 6-311++G(d,p)
 There are 12 shells and 44 basis functions
 A cutoff of  1.0D-11 yielded     78 shell pairs
 There are      1058 function pairs (      1159 Cartesian)
 Smallest overlap matrix eigenvalue = 2.07E-04
 Guess MOs from SCF MO coefficient file
 Reading MOs from coefficient file
 Reading MOs from coefficient file
 Long-range K will be added via erf
 Coulomb attenuation parameter = 0.2 bohr**(-1)
 A restricted hybrid HF-DFT SCF calculation will be
 performed using Pulay DIIS extrapolation
 Exchange:     0.2220 Hartree-Fock + 1.0000 wB97X-D + LR-HF
 Correlation:  1.0000 wB97X-D
 Using SG-1 standard quadrature grid
 SCF converges when DIIS error is below 1.0E-08
Geometry optimization detected.  Setting ReadMinima to 0
Setting SaveMinima to 0
 CPU 0.00 s  wall 0.00 s
 CPU 0.04 s  wall 0.04 s

 Total DFTman time = 0.04 CPUs 0.04 Wall
 ---------------------------------------
  Cycle       Energy         DIIS Error
 ---------------------------------------
    1    -109.5263599627      1.55E-03
 CPU 0.00 s  wall 0.00 s
 CPU 0.03 s  wall 0.03 s

 Total DFTman time = 0.03 CPUs 0.03 Wall
    2    -109.5179687503      2.25E-04
 CPU 0.00 s  wall 0.00 s
 CPU 0.03 s  wall 0.03 s

 Total DFTman time = 0.03 CPUs 0.03 Wall
    3    -109.5179786943      1.02E-04
 CPU 0.00 s  wall 0.00 s
 CPU 0.03 s  wall 0.03 s

 Total DFTman time = 0.03 CPUs 0.03 Wall
    4    -109.5179803839      6.64E-06
 CPU 0.00 s  wall 0.00 s
 CPU 0.03 s  wall 0.03 s

 Total DFTman time = 0.03 CPUs 0.03 Wall
    5    -109.5179803949      1.85E-06
 CPU 0.00 s  wall 0.00 s
 CPU 0.03 s  wall 0.03 s

 Total DFTman time = 0.03 CPUs 0.03 Wall
    6    -109.5179803958      1.53E-07
 CPU 0.00 s  wall 0.00 s
 CPU 0.03 s  wall 0.03 s

 Total DFTman time = 0.03 CPUs 0.03 Wall
    7    -109.5179803885      2.52E-08
 CPU 0.00 s  wall 0.00 s
 CPU 0.03 s  wall 0.03 s

 Total DFTman time = 0.03 CPUs 0.03 Wall
    8    -109.5179803896      3.47E-08
 CPU 0.00 s  wall 0.00 s
 CPU 0.03 s  wall 0.03 s

 Total DFTman time = 0.03 CPUs 0.03 Wall
    9    -109.5179803898      1.99E-09 Convergence criterion met
 ---------------------------------------
 SCF time:  CPU 0.98 s  wall 0.98 s
 SCF   energy in the final basis set = -109.5179803898
 Total energy in the final basis set = -109.5179803898
 Analysis of SCF Wavefunction
 
 --------------------------------------------------------------
 
                    Orbital Energies (a.u.)
 --------------------------------------------------------------
 
 Alpha MOs
 -- Occupied --
-14.541 -14.539  -1.240  -0.650  -0.561  -0.561  -0.526
 -- Virtual --
  0.047   0.047   0.138   0.143   0.160   0.160   0.211   0.236
  0.236   0.325   0.592   0.747   0.787   0.787   0.898   0.898
  0.984   1.003   1.309   1.747   1.747   1.787   1.787   2.247
  2.247   2.585   2.952   2.952   3.249   3.774   3.774   4.055
  4.055   4.305   4.606  35.166  36.444
 --------------------------------------------------------------
 
          Ground-State Mulliken Net Atomic Charges

     Atom                 Charge (a.u.)
  ----------------------------------------
      1 N                     0.000000
      2 N                    -0.000000
  ----------------------------------------
  Sum of atomic charges =     0.000000

 -----------------------------------------------------------------
                    Cartesian Multipole Moments
 -----------------------------------------------------------------
    Charge (ESU x 10^10)
                 0.0000
    Dipole Moment (Debye)
         X      -0.0000      Y       0.0000      Z       0.0000
       Tot       0.0000
    Quadrupole Moments (Debye-Ang)
        XX     -10.2365     XY      -0.0000     YY     -10.2365
        XZ       0.0000     YZ       0.0000     ZZ     -11.9105
    Octopole Moments (Debye-Ang^2)
       XXX       0.0000    XXY      -0.0000    XYY       0.0000
       YYY      -0.0000    XXZ       0.0000    XYZ      -0.0000
       YYZ       0.0000    XZZ      -0.0000    YZZ      -0.0000
       ZZZ       0.0000
    Hexadecapole Moments (Debye-Ang^3)
      XXXX      -8.7830   XXXY      -0.0000   XXYY      -2.9277
      XYYY      -0.0000   YYYY      -8.7830   XXXZ       0.0000
      XXYZ       0.0000   XYYZ       0.0000   YYYZ       0.0000
      XXZZ      -6.4393   XYZZ      -0.0000   YYZZ      -6.4393
      XZZZ       0.0000   YZZZ       0.0000   ZZZZ     -32.0323
 -----------------------------------------------------------------
 Calculating analytic gradient of the SCF energy
 Gradient of AOints
            1           2
    1   0.0000000  -0.0000000
    2   0.0000000  -0.0000000
    3  16.6447964 -16.6447964
 CPU 0.00 s  wall 0.00 s
 CPU 0.05 s  wall 0.05 s

 Total DFTman time = 0.05 CPUs 0.05 Wall
 Gradient of SCF Energy
            1           2
    1  -0.0000000   0.0000000
    2   0.0000000  -0.0000000
    3  -0.0021848   0.0021848
 Max gradient component =       2.185E-03
 RMS gradient           =       1.261E-03
 Gradient time:  CPU 0.47 s  wall 0.47 s
 Geometry Optimization Parameters
   NAtoms,    NIC,     NZ,  NCons,   NDum,   NFix, NCnnct, MaxDiis
        2       5       2       0       0       0       0       0

 Cartesian Hessian Update
 Hessian Updated using BFGS Update


** GEOMETRY OPTIMIZATION IN DELOCALIZED INTERNAL COORDINATES **
   Searching for a Minimum

   Optimization Cycle:   2

                       Coordinates (Angstroms)
     ATOM                X               Y               Z
      1  N         0.0000000000    0.0000000000   -0.5465103552
      2  N         0.0000000000    0.0000000000    0.5465103552
   Point Group: d*h   Number of degrees of freedom:     1


   Energy is   -109.517980390

 Hessian Updated using BFGS Update

  1 Hessian modes will be used to form the next step
  Hessian Eigenvalues:
     1.601853

 Minimum Search - Taking Simple RFO Step
 Searching for Lamda that Minimizes Along All modes
 Value Taken    Lamda =  -0.00000298
 Step Taken.  Stepsize is  0.001364

                             Maximum     Tolerance    Cnvgd?
         Gradient           0.002185      0.000300      NO
         Displacement       0.001364      0.001200      NO
         Energy change     -0.000169      0.000001      NO


 New Cartesian Coordinates Obtained by Inverse Iteration

 Displacement from previous Coordinates is:  0.000964
 ----------------------------------------------------------------
             Standard Nuclear Orientation (Angstroms)
    I     Atom           X                Y                Z
 ----------------------------------------------------------------
    1      N       0.0000000000     0.0000000000    -0.5461494829
    2      N       0.0000000000     0.0000000000     0.5461494829
 ----------------------------------------------------------------
 Molecular Point Group                 D*h   NOp =***
 Largest Abelian Subgroup              D2h   NOp =  1
 Nuclear Repulsion Energy =    23.7386315493 hartrees
 There are        7 alpha and        7 beta electrons
 Applying Cartesian multipole field
    Component          Value
    ---------          -----
     (2,0,0)        1.00000E-11
     (0,2,0)        2.00000E-11
     (0,0,2)       -3.00000E-11
 Nucleus-field energy     =    -0.0000000004 hartrees
 Requested basis set is 6-311++G(d,p)
 There are 12 shells and 44 basis functions
 A cutoff of  1.0D-11 yielded     78 shell pairs
 There are      1058 function pairs (      1159 Cartesian)
 Smallest overlap matrix eigenvalue = 2.06E-04
 Guess MOs from SCF MO coefficient file
 Reading MOs from coefficient file
 Reading MOs from coefficient file
 Long-range K will be added via erf
 Coulomb attenuation parameter = 0.2 bohr**(-1)
 A restricted hybrid HF-DFT SCF calculation will be
 performed using Pulay DIIS extrapolation
 Exchange:     0.2220 Hartree-Fock + 1.0000 wB97X-D + LR-HF
 Correlation:  1.0000 wB97X-D
 Using SG-1 standard quadrature grid
 SCF converges when DIIS error is below 1.0E-08
Geometry optimization detected.  Setting ReadMinima to 0
Setting SaveMinima to 0
 CPU 0.00 s  wall 0.00 s
 CPU 0.03 s  wall 0.03 s

 Total DFTman time = 0.03 CPUs 0.03 Wall
 ---------------------------------------
  Cycle       Energy         DIIS Error
 ---------------------------------------
    1    -109.5188324258      1.62E-04
 CPU 0.00 s  wall 0.00 s
 CPU 0.03 s  wall 0.03 s

 Total DFTman time = 0.03 CPUs 0.03 Wall
    2    -109.5179817236      2.31E-05
 CPU 0.00 s  wall 0.00 s
 CPU 0.03 s  wall 0.03 s

 Total DFTman time = 0.03 CPUs 0.03 Wall
    3    -109.5179818288      1.05E-05
 CPU 0.00 s  wall 0.00 s
 CPU 0.03 s  wall 0.03 s

 Total DFTman time = 0.03 CPUs 0.03 Wall
    4    -109.5179818467      6.85E-07
 CPU 0.00 s  wall 0.00 s
 CPU 0.03 s  wall 0.03 s

 Total DFTman time = 0.03 CPUs 0.03 Wall
    5    -109.5179818248      1.92E-07
 CPU 0.00 s  wall 0.00 s
 CPU 0.03 s  wall 0.03 s

 Total DFTman time = 0.03 CPUs 0.03 Wall
    6    -109.5179818407      1.59E-08
 CPU 0.00 s  wall 0.00 s
 CPU 0.03 s  wall 0.03 s

 Total DFTman time = 0.03 CPUs 0.03 Wall
    7    -109.5179818400      2.16E-09 Convergence criterion met
 ---------------------------------------
 SCF time:  CPU 0.76 s  wall 0.76 s
 SCF   energy in the final basis set = -109.5179818400
 Total energy in the final basis set = -109.5179818400
 Analysis of SCF Wavefunction
 
 --------------------------------------------------------------
 
                    Orbital Energies (a.u.)
 --------------------------------------------------------------
 
 Alpha MOs
 -- Occupied --
-14.541 -14.539  -1.240  -0.650  -0.561  -0.561  -0.526
 -- Virtual --
  0.048   0.048   0.138   0.143   0.160   0.160   0.211   0.236
  0.236   0.325   0.592   0.747   0.787   0.787   0.898   0.898
  0.984   1.004   1.309   1.747   1.747   1.788   1.788   2.248
  2.248   2.585   2.953   2.953   3.250   3.775   3.775   4.055
  4.055   4.307   4.605  35.166  36.449
 --------------------------------------------------------------
 
          Ground-State Mulliken Net Atomic Charges

     Atom                 Charge (a.u.)
  ----------------------------------------
      1 N                    -0.000000
      2 N                     0.000000
  ----------------------------------------
  Sum of atomic charges =     0.000000

 -----------------------------------------------------------------
                    Cartesian Multipole Moments
 -----------------------------------------------------------------
    Charge (ESU x 10^10)
                 0.0000
    Dipole Moment (Debye)
         X       0.0000      Y       0.0000      Z       0.0000
       Tot       0.0000
    Quadrupole Moments (Debye-Ang)
        XX     -10.2342     XY      -0.0000     YY     -10.2342
        XZ       0.0000     YZ       0.0000     ZZ     -11.9098
    Octopole Moments (Debye-Ang^2)
       XXX      -0.0000    XXY      -0.0000    XYY      -0.0000
       YYY      -0.0000    XXZ       0.0000    XYZ      -0.0000
       YYZ       0.0000    XZZ       0.0000    YZZ       0.0000
       ZZZ       0.0000
    Hexadecapole Moments (Debye-Ang^3)
      XXXX      -8.7790   XXXY      -0.0000   XXYY      -2.9263
      XYYY      -0.0000   YYYY      -8.7790   XXXZ       0.0000
      XXYZ      -0.0000   XYYZ      -0.0000   YYYZ      -0.0000
      XXZZ      -6.4342   XYZZ      -0.0000   YYZZ      -6.4342
      XZZZ       0.0000   YZZZ       0.0000   ZZZZ     -32.0052
 -----------------------------------------------------------------
 Calculating analytic gradient of the SCF energy
 Gradient of AOints
            1           2
    1  -0.0000000   0.0000000
    2  -0.0000000   0.0000000
    3  16.6531449 -16.6531449
 CPU 0.00 s  wall 0.00 s
 CPU 0.05 s  wall 0.05 s

 Total DFTman time = 0.05 CPUs 0.05 Wall
 Gradient of SCF Energy
            1           2
    1  -0.0000000   0.0000000
    2  -0.0000000   0.0000000
    3   0.0000589  -0.0000589
 Max gradient component =       5.894E-05
 RMS gradient           =       3.403E-05
 Gradient time:  CPU 0.47 s  wall 0.47 s
 Geometry Optimization Parameters
   NAtoms,    NIC,     NZ,  NCons,   NDum,   NFix, NCnnct, MaxDiis
        2       5       2       0       0       0       0       0

 Cartesian Hessian Update
 Hessian Updated using BFGS Update


** GEOMETRY OPTIMIZATION IN DELOCALIZED INTERNAL COORDINATES **
   Searching for a Minimum

   Optimization Cycle:   3

                       Coordinates (Angstroms)
     ATOM                X               Y               Z
      1  N         0.0000000000    0.0000000000   -0.5461494829
      2  N         0.0000000000    0.0000000000    0.5461494829
   Point Group: d*h   Number of degrees of freedom:     1


   Energy is   -109.517981840

 Hessian Updated using BFGS Update

  1 Hessian modes will be used to form the next step
  Hessian Eigenvalues:
     1.645067

 Minimum Search - Taking Simple RFO Step
 Searching for Lamda that Minimizes Along All modes
 Value Taken    Lamda =   0.00000000
 Step Taken.  Stepsize is  0.000036

                             Maximum     Tolerance    Cnvgd?
         Gradient           0.000059      0.000300     YES
         Displacement       0.000036      0.001200     YES
         Energy change     -0.000001      0.000001      NO


                       Distance Matrix (Angstroms)
             N (  1)
   N (  2)  1.092299
 
 Final energy is   -109.517981839972     


 ******************************
 **  OPTIMIZATION CONVERGED  **
 ******************************

Z-matrix Print:
$molecule
0 1
N 
N  1 1.092299
$end

 Analysis of SCF Wavefunction
 
 --------------------------------------------------------------
 
                    Orbital Energies (a.u.)
 --------------------------------------------------------------
 
 Alpha MOs
 -- Occupied --
-14.541 -14.539  -1.240  -0.650  -0.561  -0.561  -0.526
 -- Virtual --
  0.048   0.048   0.138   0.143   0.160   0.160   0.211   0.236
  0.236   0.325   0.592   0.747   0.787   0.787   0.898   0.898
  0.984   1.004   1.309   1.747   1.747   1.788   1.788   2.248
  2.248   2.585   2.953   2.953   3.250   3.775   3.775   4.055
  4.055   4.307   4.605  35.166  36.449
 --------------------------------------------------------------
 
          Ground-State Mulliken Net Atomic Charges

     Atom                 Charge (a.u.)
  ----------------------------------------
      1 N                    -0.000000
      2 N                     0.000000
  ----------------------------------------
  Sum of atomic charges =     0.000000

 -----------------------------------------------------------------
                    Cartesian Multipole Moments
 -----------------------------------------------------------------
    Charge (ESU x 10^10)
                 0.0000
    Dipole Moment (Debye)
         X       0.0000      Y       0.0000      Z       0.0000
       Tot       0.0000
    Quadrupole Moments (Debye-Ang)
        XX     -10.2342     XY      -0.0000     YY     -10.2342
        XZ       0.0000     YZ       0.0000     ZZ     -11.9098
    Octopole Moments (Debye-Ang^2)
       XXX      -0.0000    XXY      -0.0000    XYY      -0.0000
       YYY      -0.0000    XXZ       0.0000    XYZ      -0.0000
       YYZ       0.0000    XZZ       0.0000    YZZ       0.0000
       ZZZ       0.0000
    Hexadecapole Moments (Debye-Ang^3)
      XXXX      -8.7790   XXXY      -0.0000   XXYY      -2.9263
      XYYY      -0.0000   YYYY      -8.7790   XXXZ       0.0000
      XXYZ      -0.0000   XYYZ      -0.0000   YYYZ      -0.0000
      XXZZ      -6.4342   XYZZ      -0.0000   YYZZ      -6.4342
      XZZZ       0.0000   YZZZ       0.0000   ZZZZ     -32.0052
 -----------------------------------------------------------------
Archival summary:
1\1\vonNeumann\OPT\ProcedureUnspecified\BasisUnspecified\2\ben\TueJun1616:09:552015TueJun1616:09:552015\0\\#,OPT,ProcedureUnspecified,BasisUnspecified,\\0,1\N\N,1,1.0923\\\@

 Total job time:  4.26s(wall), 4.25s(cpu) 
 Tue Jun 16 16:09:55 2015

        *************************************************************
        *                                                           *
        *  Thank you very much for using Q-Chem.  Have a nice day.  *
        *                                                           *
        *************************************************************


 
User input: 2 of 2 
 
/home/ben/opt/apps/qchem/trunk_intel_release/exe/qcprog.exe .rpa.in.13300.qcin.2 /home/ben/scratch/qchem/qchem13300/
                  Welcome to Q-Chem
     A Quantum Leap Into The Future Of Chemistry


 Q-Chem 4.3 (beta), Q-Chem, Inc., Pleasanton, CA (2015)

 Y. Shao,  Z. Gan,  E. Epifanovsky,  A. T. B. Gilbert,  M. Wormit,  
 J. Kussmann,  A. W. Lange,  A. Behn,  J. Deng,  X. Feng,  D. Ghosh,  
 M. Goldey,  P. R. Horn,  L. D. Jacobson,  I. Kaliman,  R. Z. Khaliullin,  
 T. Kus,  A. Landau,  J. Liu,  E. I. Proynov,  Y. M. Rhee,  R. M. Richard,  
 M. A. Rohrdanz,  R. P. Steele,  E. J. Sundstrom,  H. L. Woodcock III,  
 P. M. Zimmerman,  D. Zuev,  B. Albrecht,  E. Alguire,  B. Austin,  
 S. A. Baeppler,  G. J. O. Beran,  Y. A. Bernard,  E. Berquist,  
 K. Brandhorst,  K. B. Bravaya,  S. T. Brown,  D. Casanova,  C.-M. Chang,  
 Y. Chen,  S. H. Chien,  K. D. Closser,  D. L. Crittenden,  M. Diedenhofen,  
 R. A. DiStasio Jr.,  H. Do,  A. D. Dutoi,  R. G. Edgar,  P.-T. Fang,  
 S. Fatehi,  Q. Feng,  L. Fusti-Molnar,  A. Ghysels,  
 A. Golubeva-Zadorozhnaya,  J. Gomes,  A. Gunina,  M. W. D. Hanson-Heine,  
 P. H. P. Harbach,  A. W. Hauser,  E. G. Hohenstein,  Z. C. Holden,  K. Hui,  
 T.-C. Jagau,  H. Ji,  B. Kaduk,  K. Khistyaev,  Jaehoon Kim,  Jihan Kim,  
 R. A. King,  P. Klunzinger,  D. Kosenkov,  T. Kowalczyk,  C. M. Krauter,  
 K. U. Lao,  A. Laurent,  K. V. Lawler,  S. Lehtola,  S. V. Levchenko,  
 C. Y. Lin,  Y.-S. Lin,  F. Liu,  E. Livshits,  R. C. Lochan,  A. Luenser,  
 P. Manohar,  S. F. Manzer,  S.-P. Mao,  N. Mardirossian,  A. V. Marenich,  
 L. A. Martinez-Martinez,  S. A. Maurer,  N. J. Mayhall,  K. Nanda,  
 C. M. Oana,  R. Olivares-Amaya,  D. P. O'Neill,  J. A. Parkhill,  
 T. M. Perrine,  R. Peverati,  P. A. Pieniazek,  F. Plasser,  A. Prociuk,  
 D. R. Rehn,  E. Rosta,  N. J. Russ,  N. Sergueev,  S. M. Sharada,  
 S. Sharma,  D. W. Small,  A. Sodt,  T. Stauch,  T. Stein,  D. Stuck,  
 Y.-C. Su,  A. J. W. Thom,  T. Tsuchimochi,  L. Vogt,  O. Vydrov,  T. Wang,  
 M. A. Watson,  J. Wenzel,  A. White,  C. F. Williams,  V. Vanovschi,  
 S. Yeganeh,  S. R. Yost,  Z.-Q. You,  I. Y. Zhang,  X. Zhang,  Y. Zhao,  
 B. R. Brooks,  G. K. L. Chan,  D. M. Chipman,  C. J. Cramer,  
 W. A. Goddard III,  M. S. Gordon,  W. J. Hehre,  A. Klamt,  
 H. F. Schaefer III,  M. W. Schmidt,  C. D. Sherrill,  D. G. Truhlar,  
 A. Warshel,  X. Xu,  A. Aspuru-Guzik,  R. Baer,  A. T. Bell,  N. A. Besley,  
 J.-D. Chai,  A. Dreuw,  B. D. Dunietz,  T. R. Furlani,  S. R. Gwaltney,  
 C.-P. Hsu,  Y. Jung,  J. Kong,  D. S. Lambrecht,  W. Liang,  C. Ochsenfeld,  
 V. A. Rassolov,  L. V. Slipchenko,  J. E. Subotnik,  T. Van Voorhis,  
 J. M. Herbert,  A. I. Krylov,  P. M. W. Gill,  M. Head-Gordon

 Contributors to earlier versions of Q-Chem not listed above: 
 R. D. Adamson,  J. Baker,  E. F. C. Byrd,  A. K. Chakraborty,  C.-L. Cheng,  
 H. Dachsel,  R. J. Doerksen,  G. Hawkins,  A. Heyden,  S. Hirata,  
 G. Kedziora,  F. J. Keil,  C. Kelley,  P. P. Korambath,  W. Kurlancheek,  
 A. M. Lee,  M. S. Lee,  D. Liotard,  I. Lotan,  P. E. Maslen,  N. Nair,  
 D. Neuhauser,  R. Olson,  B. Peters,  J. Ritchie,  N. E. Schultz,  
 N. Shenvi,  A. C. Simmonett,  K. S. Thanthiriwatte,  Q. Wu,  W. Zhang

 Please cite Q-Chem as follows:
 Y. Shao et al., Mol. Phys. 113, 184-215 (2014)
 DOI: 10.1080/00268976.2014.952696

 Q-Chem 4.3.0 for Intel X86 EM64T Linux

 Parts of Q-Chem use Armadillo 4.550.3 (Singapore Sling Deluxe).
 http://arma.sourceforge.net/

 Q-Chem begins on Tue Jun 16 16:09:55 2015  

Host: 
0

     Scratch files written to /home/ben/scratch/qchem/qchem13300//
 Mar2415 |home|ben|opt|apps|qchem|trunk_RNUM -1

Checking the input file for inconsistencies...	...done.

--------------------------------------------------------------
User input:
--------------------------------------------------------------

$molecule
READ
$end

$rem
jobtype       sp
exchange      omegaB97X-D
basis         6-311++G**
scf_guess     READ
cis_n_roots   10
rpa           true
$end
--------------------------------------------------------------
 ----------------------------------------------------------------
             Standard Nuclear Orientation (Angstroms)
    I     Atom           X                Y                Z
 ----------------------------------------------------------------
    1      N       0.0000000000     0.0000000000    -0.5461494829
    2      N       0.0000000000     0.0000000000     0.5461494829
 ----------------------------------------------------------------
 Molecular Point Group                 D*h   NOp =***
 Largest Abelian Subgroup              D2h   NOp =  1
 Nuclear Repulsion Energy =    23.7386315493 hartrees
 There are        7 alpha and        7 beta electrons
 Requested basis set is 6-311++G(d,p)
 There are 12 shells and 44 basis functions

Total QAlloc Memory Limit   2000 MB
Mega-Array Size        61 MB
MEM_STATIC part        62 MB

                       Distance Matrix (Angstroms)
             N (  1)
   N (  2)  1.092299
 
 A cutoff of  1.0D-11 yielded     78 shell pairs
 There are      1058 function pairs (      1159 Cartesian)
 
 -------------------------------------------------------
 OpenMP Integral Computing Module                       
 Release: version 1.0, May 2013, Q-Chem Inc. Pittsburgh 
 -------------------------------------------------------
 Integral Job Info:
 Integral job number is                      11
 Integral operator is                         1
 short-range coefficients              22203600
 long-range coefficients              100000000
 Omega coefficients                         200
 if combine SR and LR in K              -999999
 Integral screening is                        0
 Integral computing path is                   2
 max size of driver memory is            800000
 size of driver memory is                593474
 size of scratch memory is              2260544
 max col of scratch BK array               1296
 max len of scratch array in speh3          155
 max len of scratch index in speh4           18
 max int batch size is                      520
 min int batch size is                       52
 fixed nKL is                                52
 max L of basis functions is                  2
 order of int derivative is                   0
 number of shells is                         12
 number of basis is                          46
 number of cartesian basis is                46
 number of contracted shell pairs            78
 number of primitive shell pairs            345
 maxK2 (contraction) of shell pair           36
 max number of K2 of shell pair               1
 max number of CS2 of shell pair             21
 max number of PS2 of shell pair             72
 mem total for path MDJ                   10660
 -------------------------------------------------------
 Smallest overlap matrix eigenvalue = 2.06E-04

  Scale SEOQF with 1.000000e-01/1.000000e-01/1.000000e-01

 Standard Electronic Orientation quadrupole field applied
 Nucleus-field energy     =    -0.0000000004 hartrees
 Guess MOs from SCF MO coefficient file
 Reading MOs from coefficient file
 Reading MOs from coefficient file
 Long-range K will be added via erf
 Coulomb attenuation parameter = 0.2 bohr**(-1)
 A restricted hybrid HF-DFT SCF calculation will be
 performed using Pulay DIIS extrapolation
 Exchange:     0.2220 Hartree-Fock + 1.0000 wB97X-D + LR-HF
 Correlation:  1.0000 wB97X-D
 Using SG-1 standard quadrature grid
 SCF converges when DIIS error is below 1.0E-08
 CPU 0.00 s  wall 0.00 s
 CPU 0.03 s  wall 0.03 s

 Total DFTman time = 0.03 CPUs 0.03 Wall
 ---------------------------------------
  Cycle       Energy         DIIS Error
 ---------------------------------------
    1    -109.5179818468      2.46E-09
 CPU 0.00 s  wall 0.00 s
 CPU 0.03 s  wall 0.03 s

 Total DFTman time = 0.03 CPUs 0.03 Wall
    2    -109.5179818468      4.45E-09 Convergence criterion met
 ---------------------------------------
 SCF time:  CPU 0.22 s  wall 0.22 s
 SCF   energy in the final basis set = -109.5179818468
 Total energy in the final basis set = -109.5179818468
 Direct TDDFT/TDA calculation will be performed
 Exchange:     0.2220 Hartree-Fock + 1.0000 wB97X-D + LR-HF
 Correlation:  1.0000 wB97X-D
 Using SG-1 standard quadrature grid
 Triplet excitation energies requested
 Singlet excitation energies requested
 CIS energy converged when residual is below 10e- 6
 ---------------------------------------------------
 Iter    Rts Conv    Rts Left    Ttl Dev     Max Dev
 ---------------------------------------------------
   1         0          10      0.026565    0.004057
   2         0          10      0.005962    0.000696
   3         0          10      0.008465    0.003812
   4         1           9      0.006754    0.003255
   5         3           7      0.002288    0.001124
   6         6           4      0.000259    0.000122
   7         7           3      0.000073    0.000033
   8         8           2      0.000016    0.000007
   9        10           0      0.000004    0.000001    Roots Converged
 ---------------------------------------------------
 Triplets done: starting singlet calculation
 ---------------------------------------------------
 Iter    Rts Conv    Rts Left    Ttl Dev     Max Dev
 ---------------------------------------------------
  10         0          10      0.042645    0.019863
  11         0          10      0.011055    0.004596
  12         0          10      0.004538    0.001593
  13         1           9      0.003951    0.002206
  14         3           7      0.001510    0.000737
  15         5           5      0.002501    0.001359
  16         6           4      0.000459    0.000234
  17         6           4      0.000049    0.000027
  18         7           3      0.000015    0.000011
  19        10           0      0.000002    0.000000    Roots Converged
 ---------------------------------------------------
 
 
 ---------------------------------------------------
         TDDFT/TDA Excitation Energies              
 ---------------------------------------------------

 Excited state   1: excitation energy (eV) =    7.7874
    Total energy for state   1:   -109.231801481051
    Multiplicity: Triplet 
    Trans. Mom.:  0.0000 X   0.0000 Y   0.0000 Z
    Strength   :  0.0000
    D(  5) --> V(  1) amplitude =  0.6928
    D(  6) --> V(  2) amplitude =  0.6928

 Excited state   2: excitation energy (eV) =    7.9753
    Total energy for state   2:   -109.224895444741
    Multiplicity: Triplet 
    Trans. Mom.:  0.0000 X   0.0000 Y   0.0000 Z
    Strength   :  0.0000
    D(  7) --> V(  1) amplitude =  0.9884

 Excited state   3: excitation energy (eV) =    7.9753
    Total energy for state   3:   -109.224895444707
    Multiplicity: Triplet 
    Trans. Mom.:  0.0000 X   0.0000 Y   0.0000 Z
    Strength   :  0.0000
    D(  7) --> V(  2) amplitude =  0.9884

 Excited state   4: excitation energy (eV) =    8.5640
    Total energy for state   4:   -109.203260266375
    Multiplicity: Triplet 
    Trans. Mom.:  0.0000 X   0.0000 Y   0.0000 Z
    Strength   :  0.0000
    D(  5) --> V(  1) amplitude = -0.6973
    D(  6) --> V(  2) amplitude =  0.6973

 Excited state   5: excitation energy (eV) =    8.5654
    Total energy for state   5:   -109.203208961190
    Multiplicity: Triplet 
    Trans. Mom.:  0.0000 X   0.0000 Y   0.0000 Z
    Strength   :  0.0000
    D(  5) --> V(  2) amplitude =  0.6973
    D(  6) --> V(  1) amplitude =  0.6973

 Excited state   6: excitation energy (eV) =    9.4570
    Total energy for state   6:   -109.170443897834
    Multiplicity: Triplet 
    Trans. Mom.:  0.0000 X   0.0000 Y   0.0000 Z
    Strength   :  0.0000
    D(  5) --> V(  2) amplitude =  0.7011
    D(  6) --> V(  1) amplitude = -0.7011

 Excited state   7: excitation energy (eV) =    9.4570
    Total energy for state   7:   -109.170443897834
    Multiplicity: Singlet 
    Trans. Mom.: -0.0000 X   0.0000 Y   0.0000 Z
    Strength   :  0.0000
    D(  5) --> V(  2) amplitude = -0.7011
    D(  6) --> V(  1) amplitude =  0.7011

 Excited state   8: excitation energy (eV) =    9.5780
    Total energy for state   8:   -109.165995643380
    Multiplicity: Singlet 
    Trans. Mom.:  0.0000 X  -0.0000 Y  -0.0000 Z
    Strength   :  0.0000
    D(  7) --> V(  1) amplitude =  0.9920

 Excited state   9: excitation energy (eV) =    9.5780
    Total energy for state   9:   -109.165995643349
    Multiplicity: Singlet 
    Trans. Mom.: -0.0000 X   0.0000 Y  -0.0000 Z
    Strength   :  0.0000
    D(  7) --> V(  2) amplitude =  0.9920

 Excited state  10: excitation energy (eV) =    9.9410
    Total energy for state  10:   -109.152657055808
    Multiplicity: Singlet 
    Trans. Mom.: -0.0000 X   0.0000 Y  -0.0000 Z
    Strength   :  0.0000
    D(  5) --> V(  1) amplitude =  0.7031
    D(  6) --> V(  2) amplitude = -0.7031

 Excited state  11: excitation energy (eV) =    9.9422
    Total energy for state  11:   -109.152612786497
    Multiplicity: Singlet 
    Trans. Mom.: -0.0000 X  -0.0000 Y   0.0000 Z
    Strength   :  0.0000
    D(  5) --> V(  2) amplitude =  0.7031
    D(  6) --> V(  1) amplitude =  0.7031

 Excited state  12: excitation energy (eV) =   11.1357
    Total energy for state  12:   -109.108754101829
    Multiplicity: Triplet 
    Trans. Mom.:  0.0000 X   0.0000 Y   0.0000 Z
    Strength   :  0.0000
    D(  4) --> V(  1) amplitude = -0.9818

 Excited state  13: excitation energy (eV) =   11.1357
    Total energy for state  13:   -109.108754101794
    Multiplicity: Triplet 
    Trans. Mom.:  0.0000 X   0.0000 Y   0.0000 Z
    Strength   :  0.0000
    D(  4) --> V(  2) amplitude = -0.9818

 Excited state  14: excitation energy (eV) =   12.5953
    Total energy for state  14:   -109.055112005149
    Multiplicity: Triplet 
    Trans. Mom.:  0.0000 X   0.0000 Y   0.0000 Z
    Strength   :  0.0000
    D(  7) --> V(  3) amplitude =  0.9646

 Excited state  15: excitation energy (eV) =   13.2856
    Total energy for state  15:   -109.029743353205
    Multiplicity: Triplet 
    Trans. Mom.:  0.0000 X   0.0000 Y   0.0000 Z
    Strength   :  0.0000
    D(  4) --> V(  3) amplitude =  0.2356
    D(  7) --> V(  4) amplitude =  0.9598

 Excited state  16: excitation energy (eV) =   13.4717
    Total energy for state  16:   -109.022904193319
    Multiplicity: Singlet 
    Trans. Mom.: -0.0000 X  -0.0000 Y   1.1349 Z
    Strength   :  0.4251
    D(  4) --> V(  3) amplitude =  0.2305
    D(  7) --> V(  4) amplitude =  0.9361

 Excited state  17: excitation energy (eV) =   13.4958
    Total energy for state  17:   -109.022022094531
    Multiplicity: Singlet 
    Trans. Mom.:  0.0000 X   0.0000 Y  -0.0000 Z
    Strength   :  0.0000
    D(  7) --> V(  3) amplitude =  0.9733

 Excited state  18: excitation energy (eV) =   13.6459
    Total energy for state  18:   -109.016503866620
    Multiplicity: Singlet 
    Trans. Mom.:  0.7304 X   0.0178 Y  -0.0000 Z
    Strength   :  0.1784
    D(  5) --> V(  3) amplitude =  0.5152
    D(  7) --> V(  5) amplitude =  0.8433

 Excited state  19: excitation energy (eV) =   13.6459
    Total energy for state  19:   -109.016503866601
    Multiplicity: Singlet 
    Trans. Mom.: -0.0178 X   0.7304 Y  -0.0000 Z
    Strength   :  0.1784
    D(  6) --> V(  3) amplitude =  0.5152
    D(  7) --> V(  6) amplitude =  0.8433

 Excited state  20: excitation energy (eV) =   13.9444
    Total energy for state  20:   -109.005535446576
    Multiplicity: Singlet 
    Trans. Mom.: -0.0008 X   0.3518 Y   0.0000 Z
    Strength   :  0.0423
    D(  6) --> V(  3) amplitude =  0.8219
    D(  7) --> V(  6) amplitude = -0.5181
 
 ---------------------------------------------------
 Direct TDDFT calculation will be performed
 Exchange:     0.2220 Hartree-Fock + 1.0000 wB97X-D + LR-HF
 Correlation:  1.0000 wB97X-D
 Using SG-1 standard quadrature grid
 ---------------------------------------------------
 Iter    Rts Conv    Rts Left    Ttl Dev     Max Dev
 ---------------------------------------------------
   1         0          10      0.001634    0.000503
   2         0          10      0.000498    0.000125
   3         1           9      0.000109    0.000026
   4         3           7      0.000024    0.000005
   5         5           5      0.000020    0.000005
   6         5           5      0.000031    0.000011
   7         7           3      0.000010    0.000002
   8         8           2      0.000009    0.000002
   9         9           1      0.000007    0.000001
  10         9           1      0.000007    0.000002
  11         9           1      0.000007    0.000002
  12        10           0      0.000006    0.000001    Roots Converged
 ---------------------------------------------------
 Triplets done: starting singlet calculation
 ---------------------------------------------------
 Iter    Rts Conv    Rts Left    Ttl Dev     Max Dev
 ---------------------------------------------------
  13         0          10      0.000402    0.000155
  14         0          10      0.001320    0.000391
  15         1           9      0.000862    0.000455
  16         3           7      0.000490    0.000258
  17         3           7      0.000153    0.000057
  18         6           4      0.000050    0.000019
  19         7           3      0.000033    0.000014
  20         7           3      0.000022    0.000009
  21         7           3      0.000014    0.000005
  22         9           1      0.000006    0.000002
  23         9           1      0.000005    0.000001
  24         9           1      0.000006    0.000003
  25         9           1      0.000008    0.000004
  26        10           0      0.000004    0.000001    Roots Converged
 ---------------------------------------------------
 
 
 ---------------------------------------------------
             TDDFT Excitation Energies              
 ---------------------------------------------------

 Excited state   1: excitation energy (eV) =    7.2996
    Total energy for state   1:   -109.249724970654
    Multiplicity: Triplet 
    Trans. Mom.:  0.0000 X   0.0000 Y   0.0000 Z
    Strength   :  0.0000
    X: D(  5) --> V(  1) amplitude =  0.7007
    X: D(  6) --> V(  2) amplitude =  0.7007

 Excited state   2: excitation energy (eV) =    7.8975
    Total energy for state   2:   -109.227754895427
    Multiplicity: Triplet 
    Trans. Mom.:  0.0000 X   0.0000 Y   0.0000 Z
    Strength   :  0.0000
    X: D(  7) --> V(  1) amplitude =  0.9894

 Excited state   3: excitation energy (eV) =    7.8975
    Total energy for state   3:   -109.227754895392
    Multiplicity: Triplet 
    Trans. Mom.:  0.0000 X   0.0000 Y   0.0000 Z
    Strength   :  0.0000
    X: D(  7) --> V(  2) amplitude =  0.9894

 Excited state   4: excitation energy (eV) =    8.3479
    Total energy for state   4:   -109.211200368537
    Multiplicity: Triplet 
    Trans. Mom.:  0.0000 X   0.0000 Y   0.0000 Z
    Strength   :  0.0000
    X: D(  5) --> V(  1) amplitude = -0.7002
    X: D(  6) --> V(  2) amplitude =  0.7002

 Excited state   5: excitation energy (eV) =    8.3497
    Total energy for state   5:   -109.211135269932
    Multiplicity: Triplet 
    Trans. Mom.:  0.0000 X   0.0000 Y   0.0000 Z
    Strength   :  0.0000
    X: D(  5) --> V(  2) amplitude =  0.7002
    X: D(  6) --> V(  1) amplitude =  0.7002

 Excited state   6: excitation energy (eV) =    9.4216
    Total energy for state   6:   -109.171745248593
    Multiplicity: Triplet 
    Trans. Mom.:  0.0000 X   0.0000 Y   0.0000 Z
    Strength   :  0.0000
    X: D(  5) --> V(  2) amplitude =  0.7016
    X: D(  6) --> V(  1) amplitude = -0.7016

 Excited state   7: excitation energy (eV) =    9.4216
    Total energy for state   7:   -109.171745248593
    Multiplicity: Singlet 
    Trans. Mom.: -0.0000 X   0.0000 Y   0.0000 Z
    Strength   :  0.0000
    X: D(  5) --> V(  2) amplitude = -0.7016
    X: D(  6) --> V(  1) amplitude =  0.7016

 Excited state   8: excitation energy (eV) =    9.4610
    Total energy for state   8:   -109.170297867836
    Multiplicity: Singlet 
    Trans. Mom.:  0.0000 X   0.0000 Y  -0.0000 Z
    Strength   :  0.0000
    X: D(  7) --> V(  1) amplitude =  0.9942

 Excited state   9: excitation energy (eV) =    9.4610
    Total energy for state   9:   -109.170297867805
    Multiplicity: Singlet 
    Trans. Mom.: -0.0000 X   0.0000 Y  -0.0000 Z
    Strength   :  0.0000
    X: D(  7) --> V(  2) amplitude =  0.9942

 Excited state  10: excitation energy (eV) =    9.9340
    Total energy for state  10:   -109.152913923557
    Multiplicity: Singlet 
    Trans. Mom.: -0.0000 X   0.0000 Y  -0.0000 Z
    Strength   :  0.0000
    X: D(  5) --> V(  1) amplitude =  0.7032
    X: D(  6) --> V(  2) amplitude = -0.7032

 Excited state  11: excitation energy (eV) =    9.9352
    Total energy for state  11:   -109.152868253143
    Multiplicity: Singlet 
    Trans. Mom.: -0.0000 X  -0.0000 Y   0.0000 Z
    Strength   :  0.0000
    X: D(  5) --> V(  2) amplitude =  0.7032
    X: D(  6) --> V(  1) amplitude =  0.7032

 Excited state  12: excitation energy (eV) =   11.0218
    Total energy for state  12:   -109.112937194334
    Multiplicity: Triplet 
    Trans. Mom.:  0.0000 X   0.0000 Y   0.0000 Z
    Strength   :  0.0000
    X: D(  4) --> V(  1) amplitude = -0.9820

 Excited state  13: excitation energy (eV) =   11.0218
    Total energy for state  13:   -109.112937194299
    Multiplicity: Triplet 
    Trans. Mom.:  0.0000 X   0.0000 Y   0.0000 Z
    Strength   :  0.0000
    X: D(  4) --> V(  2) amplitude = -0.9820

 Excited state  14: excitation energy (eV) =   12.5737
    Total energy for state  14:   -109.055908700271
    Multiplicity: Triplet 
    Trans. Mom.:  0.0000 X   0.0000 Y   0.0000 Z
    Strength   :  0.0000
    X: D(  7) --> V(  3) amplitude =  0.9643

 Excited state  15: excitation energy (eV) =   13.2736
    Total energy for state  15:   -109.030184607305
    Multiplicity: Triplet 
    Trans. Mom.:  0.0000 X   0.0000 Y   0.0000 Z
    Strength   :  0.0000
    X: D(  4) --> V(  3) amplitude =  0.2389
    X: D(  7) --> V(  4) amplitude =  0.9586

 Excited state  16: excitation energy (eV) =   13.4171
    Total energy for state  16:   -109.024912347593
    Multiplicity: Singlet 
    Trans. Mom.: -0.0000 X  -0.0000 Y   1.2583 Z
    Strength   :  0.5205
    X: D(  4) --> V(  3) amplitude =  0.2541
    X: D(  5) --> V(  1) amplitude =  0.2605
    X: D(  6) --> V(  2) amplitude =  0.2605
    X: D(  7) --> V(  4) amplitude =  0.8819

 Excited state  17: excitation energy (eV) =   13.4445
    Total energy for state  17:   -109.023906649978
    Multiplicity: Singlet 
    Trans. Mom.:  0.0000 X   0.0000 Y  -0.0000 Z
    Strength   :  0.0000
    X: D(  7) --> V(  3) amplitude =  0.9783

 Excited state  18: excitation energy (eV) =   13.6426
    Total energy for state  18:   -109.016624865866
    Multiplicity: Singlet 
    Trans. Mom.: -0.0017 X   0.7470 Y  -0.0000 Z
    Strength   :  0.1865
    X: D(  6) --> V(  3) amplitude =  0.5225
    X: D(  7) --> V(  6) amplitude =  0.8394

 Excited state  19: excitation energy (eV) =   13.6427
    Total energy for state  19:   -109.016622638588
    Multiplicity: Singlet 
    Trans. Mom.:  0.7464 X   0.0017 Y  -0.0000 Z
    Strength   :  0.1862
    X: D(  5) --> V(  3) amplitude =  0.5221
    X: D(  7) --> V(  5) amplitude =  0.8397

 Excited state  20: excitation energy (eV) =   13.9185
    Total energy for state  20:   -109.006485666027
    Multiplicity: Singlet 
    Trans. Mom.: -0.0011 X   0.4994 Y   0.0000 Z
    Strength   :  0.0850
    X: D(  4) --> V(  2) amplitude =  0.4087
    X: D(  6) --> V(  3) amplitude =  0.7601
    X: D(  7) --> V(  6) amplitude = -0.4867
 
 ---------------------------------------------------
  Timing summary (seconds)
  CPU time          8.16s
  System time       0.00s
  Wall time         8.17s
 Analysis of SCF Wavefunction
 
 --------------------------------------------------------------
 
                    Orbital Energies (a.u.)
 --------------------------------------------------------------
 
 Alpha MOs
 -- Occupied --
-14.541 -14.539  -1.240  -0.650  -0.561  -0.561  -0.526
 -- Virtual --
  0.048   0.048   0.138   0.143   0.160   0.160   0.211   0.236
  0.236   0.325   0.592   0.747   0.787   0.787   0.898   0.898
  0.984   1.004   1.309   1.747   1.747   1.788   1.788   2.248
  2.248   2.585   2.953   2.953   3.250   3.775   3.775   4.055
  4.055   4.307   4.605  35.166  36.449
 --------------------------------------------------------------
 
          Ground-State Mulliken Net Atomic Charges

     Atom                 Charge (a.u.)
  ----------------------------------------
      1 N                    -0.000000
      2 N                     0.000000
  ----------------------------------------
  Sum of atomic charges =     0.000000

 -----------------------------------------------------------------
                    Cartesian Multipole Moments
 -----------------------------------------------------------------
    Charge (ESU x 10^10)
                 0.0000
    Dipole Moment (Debye)
         X      -0.0000      Y      -0.0000      Z       0.0000
       Tot       0.0000
    Quadrupole Moments (Debye-Ang)
        XX     -10.2342     XY      -0.0000     YY     -10.2342
        XZ       0.0000     YZ      -0.0000     ZZ     -11.9098
    Octopole Moments (Debye-Ang^2)
       XXX      -0.0000    XXY      -0.0000    XYY      -0.0000
       YYY      -0.0000    XXZ       0.0000    XYZ      -0.0000
       YYZ       0.0000    XZZ      -0.0000    YZZ      -0.0000
       ZZZ      -0.0000
    Hexadecapole Moments (Debye-Ang^3)
      XXXX      -8.7790   XXXY      -0.0000   XXYY      -2.9263
      XYYY      -0.0000   YYYY      -8.7790   XXXZ       0.0000
      XXYZ      -0.0000   XYYZ       0.0000   YYYZ      -0.0000
      XXZZ      -6.4342   XYZZ      -0.0000   YYZZ      -6.4342
      XZZZ       0.0000   YZZZ      -0.0000   ZZZZ     -32.0052
 -----------------------------------------------------------------
Archival summary:
1\1\vonNeumann\SP\ProcedureUnspecified\BasisUnspecified\2\ben\TueJun1616:10:042015TueJun1616:10:042015\0\\#,ProcedureUnspecified,BasisUnspecified,\\0,1\N\N,1,1.0923\\\@

 Total job time:  8.46s(wall), 8.44s(cpu) 
 Tue Jun 16 16:10:04 2015

        *************************************************************
        *                                                           *
        *  Thank you very much for using Q-Chem.  Have a nice day.  *
        *                                                           *
        *************************************************************


