/home/ben/opt/apps/qchem/trunk_intel_release/exe/qcprog.exe .gsm.in.320.qcin.1 /home/ben/scratch/qchem/qchem320/
                  Welcome to Q-Chem
     A Quantum Leap Into The Future Of Chemistry


 Q-Chem 4.3 (beta), Q-Chem, Inc., Pleasanton, CA (2015)

 Y. Shao,  Z. Gan,  E. Epifanovsky,  A. T. B. Gilbert,  M. Wormit,  
 J. Kussmann,  A. W. Lange,  A. Behn,  J. Deng,  X. Feng,  D. Ghosh,  
 M. Goldey,  P. R. Horn,  L. D. Jacobson,  I. Kaliman,  R. Z. Khaliullin,  
 T. Kus,  A. Landau,  J. Liu,  E. I. Proynov,  Y. M. Rhee,  R. M. Richard,  
 M. A. Rohrdanz,  R. P. Steele,  E. J. Sundstrom,  H. L. Woodcock III,  
 P. M. Zimmerman,  D. Zuev,  B. Albrecht,  E. Alguire,  B. Austin,  
 S. A. Baeppler,  G. J. O. Beran,  Y. A. Bernard,  E. Berquist,  
 K. Brandhorst,  K. B. Bravaya,  S. T. Brown,  D. Casanova,  C.-M. Chang,  
 Y. Chen,  S. H. Chien,  K. D. Closser,  D. L. Crittenden,  M. Diedenhofen,  
 R. A. DiStasio Jr.,  H. Do,  A. D. Dutoi,  R. G. Edgar,  P.-T. Fang,  
 S. Fatehi,  Q. Feng,  L. Fusti-Molnar,  A. Ghysels,  
 A. Golubeva-Zadorozhnaya,  J. Gomes,  A. Gunina,  M. W. D. Hanson-Heine,  
 P. H. P. Harbach,  A. W. Hauser,  E. G. Hohenstein,  Z. C. Holden,  K. Hui,  
 T.-C. Jagau,  H. Ji,  B. Kaduk,  K. Khistyaev,  Jaehoon Kim,  Jihan Kim,  
 R. A. King,  P. Klunzinger,  D. Kosenkov,  T. Kowalczyk,  C. M. Krauter,  
 K. U. Lao,  A. Laurent,  K. V. Lawler,  S. Lehtola,  S. V. Levchenko,  
 C. Y. Lin,  Y.-S. Lin,  F. Liu,  E. Livshits,  R. C. Lochan,  A. Luenser,  
 P. Manohar,  S. F. Manzer,  S.-P. Mao,  N. Mardirossian,  A. V. Marenich,  
 L. A. Martinez-Martinez,  S. A. Maurer,  N. J. Mayhall,  K. Nanda,  
 C. M. Oana,  R. Olivares-Amaya,  D. P. O'Neill,  J. A. Parkhill,  
 T. M. Perrine,  R. Peverati,  P. A. Pieniazek,  F. Plasser,  A. Prociuk,  
 D. R. Rehn,  E. Rosta,  N. J. Russ,  N. Sergueev,  S. M. Sharada,  
 S. Sharma,  D. W. Small,  A. Sodt,  T. Stauch,  T. Stein,  D. Stuck,  
 Y.-C. Su,  A. J. W. Thom,  T. Tsuchimochi,  L. Vogt,  O. Vydrov,  T. Wang,  
 M. A. Watson,  J. Wenzel,  A. White,  C. F. Williams,  V. Vanovschi,  
 S. Yeganeh,  S. R. Yost,  Z.-Q. You,  I. Y. Zhang,  X. Zhang,  Y. Zhao,  
 B. R. Brooks,  G. K. L. Chan,  D. M. Chipman,  C. J. Cramer,  
 W. A. Goddard III,  M. S. Gordon,  W. J. Hehre,  A. Klamt,  
 H. F. Schaefer III,  M. W. Schmidt,  C. D. Sherrill,  D. G. Truhlar,  
 A. Warshel,  X. Xu,  A. Aspuru-Guzik,  R. Baer,  A. T. Bell,  N. A. Besley,  
 J.-D. Chai,  A. Dreuw,  B. D. Dunietz,  T. R. Furlani,  S. R. Gwaltney,  
 C.-P. Hsu,  Y. Jung,  J. Kong,  D. S. Lambrecht,  W. Liang,  C. Ochsenfeld,  
 V. A. Rassolov,  L. V. Slipchenko,  J. E. Subotnik,  T. Van Voorhis,  
 J. M. Herbert,  A. I. Krylov,  P. M. W. Gill,  M. Head-Gordon

 Contributors to earlier versions of Q-Chem not listed above: 
 R. D. Adamson,  J. Baker,  E. F. C. Byrd,  A. K. Chakraborty,  C.-L. Cheng,  
 H. Dachsel,  R. J. Doerksen,  G. Hawkins,  A. Heyden,  S. Hirata,  
 G. Kedziora,  F. J. Keil,  C. Kelley,  P. P. Korambath,  W. Kurlancheek,  
 A. M. Lee,  M. S. Lee,  D. Liotard,  I. Lotan,  P. E. Maslen,  N. Nair,  
 D. Neuhauser,  R. Olson,  B. Peters,  J. Ritchie,  N. E. Schultz,  
 N. Shenvi,  A. C. Simmonett,  K. S. Thanthiriwatte,  Q. Wu,  W. Zhang

 Please cite Q-Chem as follows:
 Y. Shao et al., Mol. Phys. 113, 184-215 (2014)
 DOI: 10.1080/00268976.2014.952696

 Q-Chem 4.3.0 for Intel X86 EM64T Linux

 Parts of Q-Chem use Armadillo 4.550.3 (Singapore Sling Deluxe).
 http://arma.sourceforge.net/

 Q-Chem begins on Wed Apr 29 16:38:06 2015  

Host: 
0

     Scratch files written to /home/ben/scratch/qchem/qchem320//
 Mar2415 |home|ben|opt|apps|qchem|trunk_RNUM -1
 Now reading second FSM geometry

Checking the input file for inconsistencies...	...done.
 In gsm_init()
 FSM_FNODE : 12
 FSM_NGRAD : 6
done with init

--------------------------------------------------------------
User input:
--------------------------------------------------------------
$molecule
0 2
  C 0.00000000 0.00000000 0.00000000
  O 6.34635302 0.00000000 0.00000000
  O -0.66813225 0.00000000 -1.02094701
  C -0.57293423 0.00623903 1.33844009
  Si -2.42969083 0.05962283 1.53049376
  H -3.04941288 -1.13655227 0.90877331
  H -2.97827670 1.28614584 0.90108489
  H -2.74248690 0.07439969 2.98243147
  H 0.11548221 -0.02622069 2.17827273
  C 6.95158335 0.00314396 -1.29132916
  H 8.02086694 0.11072727 -1.11528077
  H 6.57109852 0.83210800 -1.89160114
  H 6.74759114 -0.93466001 -1.81452683
******
  C 0.00000000 0.00000000 0.00000000
  O 1.34635302 0.00000000 0.00000000
  O -0.66813225 0.00000000 -1.02094701
  C -0.57293423 0.00623903 1.33844009
  Si -2.42969083 0.05962283 1.53049376
  H -3.04941288 -1.13655227 0.90877331
  H -2.97827670 1.28614584 0.90108489
  H -2.74248690 0.07439969 2.98243147
  H 0.11548221 -0.02622069 2.17827273
  C 1.95158335 0.00314396 -1.29132916
  H 3.02086694 0.11072727 -1.11528077
  H 1.57109852 0.83210800 -1.89160114
  H 1.74759114 -0.93466001 -1.81452683
$end

$rem
    jobtype               gsm
    exchange              hf        !omegab97x-d
    basis                 STO-3G    !6-31G**
    unrestricted          true
    state_follow          0
    fsm_ngrad             6 !Gradient steps used per optimization(4)
    fsm_nnode             12 ! Number of nodes (12)
    fsm_mode              2 ! LST Interpolation(2)
    fsm_opt_mode          2 ! Quasi-Newton Optimization(2)
    geom_opt_max_cycles   500
    scf_algorithm         diis_gdm
    scf_max_cycles        500
$end

--------------------------------------------------------------
 ----------------------------------------------------------------
             Standard Nuclear Orientation (Angstroms)
    I     Atom           X                Y                Z
 ----------------------------------------------------------------
    1      C       0.0000000000     0.0000000000     0.0000000000
    2      O       6.3463530200     0.0000000000     0.0000000000
    3      O      -0.6681322500     0.0000000000    -1.0209470100
    4      C      -0.5729342300     0.0062390300     1.3384400900
    5      Si     -2.4296908300     0.0596228300     1.5304937600
    6      H      -3.0494128800    -1.1365522700     0.9087733100
    7      H      -2.9782767000     1.2861458400     0.9010848900
    8      H      -2.7424869000     0.0743996900     2.9824314700
    9      H       0.1154822100    -0.0262206900     2.1782727300
   10      C       6.9515833500     0.0031439600    -1.2913291600
   11      H       8.0208669400     0.1107272700    -1.1152807700
   12      H       6.5710985200     0.8321080000    -1.8916011400
   13      H       6.7475911400    -0.9346600100    -1.8145268300
 ----------------------------------------------------------------
 Nuclear Repulsion Energy =   213.1358861086 hartrees
 There are       28 alpha and       27 beta electrons
 Requested basis set is STO-3G
 There are 20 shells and 41 basis functions

Total QAlloc Memory Limit   2000 MB
Mega-Array Size        61 MB
MEM_STATIC part        62 MB

                       Distance Matrix (Angstroms)
             C (  1)   O (  2)   O (  3)   C (  4)   Si(  5)   H (  6)
   O (  2)  6.346353
   O (  3)  1.220137  7.088394
   C (  4)  1.455924  7.047553  2.361315
   Si(  5)  2.872171  8.908699  3.101047  1.867426
   H (  6)  3.378837  9.507788  3.268955  2.761074  1.483721
   H (  7)  3.366936  9.455942  3.268814  2.759549  1.483732  2.423754
   H (  8)  4.052366  9.565952  4.509492  2.722923  1.485322  2.420881
   H (  9)  2.181489  6.600705  3.293895  1.086411  2.627716  3.586227
   C ( 10)  7.070506  1.426129  7.624512  7.970826  9.796641 10.303363
   H ( 11)  8.098791  2.014971  8.690217  8.937846 10.780394 11.322703
   H ( 12)  6.888388  2.078718  7.338726  7.883681  9.660314 10.211364
   H ( 13)  7.049545  2.080166  7.516403  8.025994  9.818364 10.170468
             H (  7)   H (  8)   H (  9)   C ( 10)   H ( 11)   H ( 12)
   H (  8)  2.419903
   H (  9)  3.595116  2.970654
   C ( 10) 10.249629 10.594579  7.666243
   H ( 11) 11.244043 11.517046  8.565124  1.089006
   H ( 12)  9.959709 10.539127  7.679556  1.091914  1.795798
   H ( 13) 10.339199 10.681320  7.794394  1.093080  1.789696  1.777234

 
 A cutoff of  1.0D-12 yielded    127 shell pairs
 There are       595 function pairs
 
 -------------------------------------------------------
 OpenMP Integral Computing Module                       
 Release: version 1.0, May 2013, Q-Chem Inc. Pittsburgh 
 -------------------------------------------------------
 Integral Job Info:
 Integral job number is                      11
 Integral operator is                         1
 short-range coefficients               -999999
 long-range coefficients                -999999
 Omega coefficients                           0
 if combine SR and LR in K              -999999
 Integral screening is                        0
 Integral computing path is                   2
 max size of driver memory is            800000
 size of driver memory is                 45569
 size of scratch memory is               945100
 max col of scratch BK array                289
 max len of scratch array in speh3           22
 max len of scratch index in speh4            8
 max int batch size is                      520
 min int batch size is                       52
 fixed nKL is                                52
 max L of basis functions is                  1
 order of int derivative is                   0
 number of shells is                         20
 number of basis is                          41
 number of cartesian basis is                41
 number of contracted shell pairs           127
 number of primitive shell pairs            895
 maxK2 (contraction) of shell pair            9
 max number of K2 of shell pair               1
 max number of CS2 of shell pair             23
 max number of PS2 of shell pair            207
 mem total for path MDJ                   13530
 -------------------------------------------------------
 Smallest overlap matrix eigenvalue = 2.32E-01

  Scale SEOQF with 1.000000e-02/1.000000e+00/1.000000e-01

 Standard Electronic Orientation quadrupole field applied
 Nucleus-field energy     =    -0.0000000027 hartrees
 Guess from superposition of atomic densities
 Warning:  Energy on first SCF cycle will be non-variational
 An unrestricted Hartree-Fock SCF calculation will be
 performed using Pulay DIIS + Geometric Direct Minimization
 SCF converges when RMS gradient is below 1.0E-08
 ---------------------------------------
  Cycle       Energy         DIIS Error
 ---------------------------------------
    1    -547.8917269799      1.43E-01
    2    -548.6981562702      2.97E-02
    3    -543.9884348709      6.33E-02
    4    -548.8482460777      2.06E-02
    5    -548.9267019977      1.45E-02
    6    -548.9733050974      9.77E-03 Done DIIS. Switching to GDM
    7    -546.9851981088      8.92E-01 Descent step
    8    -547.4976739998      1.84E-01 Descent step
    9    -547.6889072590      1.19E-01 Descent step
   10    -547.7914993087      7.96E-02 Dog-leg BFGS step
   11    -547.8337720411      3.81E-02 Normal BFGS step
   12    -547.8423671530      2.89E-02 Normal BFGS step
   13    -547.8457881641      2.15E-02 Normal BFGS step
   14    -547.8477479279      1.77E-02 Normal BFGS step
   15    -547.8490727995      1.74E-02 Normal BFGS step
   16    -547.8514415864      4.22E-02 Dog-leg BFGS step
   17    -547.8619961145      9.21E-02 Dog-leg BFGS step
   18    -547.8782254337      7.88E-02 Dog-leg BFGS step
   19    -547.9163725779      2.71E-01 Descent step
   20    -547.9420235432      3.83E-01 Descent step
   21    -548.0274411157      5.53E-01 Descent step
   22    -548.1913475791      1.76E-01 Descent step
   GDM::BFGS:   rebuilding Hinv to be positive definite
   23    -548.3183647996      7.09E-01 Descent step
   GDM::BFGS:   rebuilding Hinv to be positive definite
   24    -548.6865038515      2.68E-01 Descent step
   25    -548.8630947304      1.85E-01 Descent step
   26    -548.9542440590      1.41E-01 Dog-leg BFGS step
   27    -549.0290405762      1.58E-01 Dog-leg BFGS step
   28    -549.0501147734      3.55E-01 Descent step
   29    -549.2590548147      2.80E-01 Descent step
   30    -549.3808680219      8.00E-02 Dog-leg BFGS step
   31    -549.3991894336      1.07E-01 Dog-leg BFGS step
   32    -549.4314887888      3.81E-02 Dog-leg BFGS step
   33    -549.4014625256      3.56E-01 Line search: overstep
   34    -549.4336390142      3.24E-02 Dog-leg BFGS step
   35    -549.4377402053      2.44E-02 Dog-leg BFGS step
   36    -549.4389249429      3.00E-02 Dog-leg BFGS step
   37    -549.4392905083      1.97E-02 Dog-leg BFGS step
   38    -549.4377821525      1.16E-01 Line search: overstep
   39    -549.4402411068      1.85E-02 Descent step
   40    -549.4410724441      1.42E-02 Normal BFGS step
   41    -549.4380835859      2.92E-02 Line search: overstep
   42    -549.4412536580      1.10E-02 Dog-leg BFGS step
   43    -549.4424100343      1.42E-02 Dog-leg BFGS step
   44    -549.4417726902      1.80E-02 Line search: overstep
   45    -549.4428732139      6.51E-03 Dog-leg BFGS step
   46    -549.4432767438      3.27E-03 Dog-leg BFGS step
   47    -549.4434704319      3.14E-03 Normal BFGS step
   48    -549.4435642282      2.18E-03 Normal BFGS step
   49    -549.4436124282      1.61E-03 Normal BFGS step
   50    -549.4436659123      1.13E-03 Normal BFGS step
   51    -549.4436849685      6.98E-04 Normal BFGS step
   52    -549.4436937752      5.18E-04 Normal BFGS step
   53    -549.4436959918      2.87E-04 Normal BFGS step
   54    -549.4436966563      1.56E-04 Normal BFGS step
   55    -549.4436968357      8.61E-05 Normal BFGS step
   56    -549.4436969039      8.60E-05 Normal BFGS step
   57    -549.4436969330      8.57E-05 Normal BFGS step
   58    -549.4436969546      8.52E-05 Normal BFGS step
   59    -549.4436969871      8.39E-05 Normal BFGS step
   60    -549.4436970516      8.57E-05 Normal BFGS step
   61    -549.4436971845      1.33E-04 Normal BFGS step
   62    -549.4436974391      1.68E-04 Normal BFGS step
   63    -549.4436978374      1.71E-04 Normal BFGS step
   64    -549.4436982565      1.52E-04 Normal BFGS step
   65    -549.4436984955      8.95E-05 Normal BFGS step
   66    -549.4436985643      3.78E-05 Normal BFGS step
   67    -549.4436985784      1.81E-05 Normal BFGS step
   68    -549.4436985821      9.92E-06 Normal BFGS step
   69    -549.4436985831      4.02E-06 Normal BFGS step
   70    -549.4436985832      2.45E-06 Normal BFGS step
   71    -549.4436985833      1.11E-06 Normal BFGS step
   72    -549.4436985833      6.67E-07 Normal BFGS step
   73    -549.4436985833      5.64E-07 Normal BFGS step
   74    -549.4436985833      3.63E-07 Normal BFGS step
   75    -549.4436985833      2.06E-07 Normal BFGS step
   76    -549.4436985833      2.05E-07 Normal BFGS step
   GDM::WARNING energy changes are now smaller than effective accuracy.
   GDM::        calculation will continue, but THRESH should be increased
   GDM::        or SCF_CONVERGENCE decreased.
   GDM::        effective_thresh =   3.470506731821643E-009
   77    -549.4436985833      1.56E-07 Normal BFGS step
   78    -549.4436985833      1.14E-07 Normal BFGS step
   79    -549.4436985833      5.48E-08 Normal BFGS step
   GDM::WARNING energy changes are now smaller than effective accuracy.
   GDM::        calculation will continue, but THRESH should be increased
   GDM::        or SCF_CONVERGENCE decreased.
   GDM::        effective_thresh =   3.470506731821643E-009
   80    -549.4436985833      1.95E-08 Normal BFGS step
   81    -549.4436985833      1.35E-08 Normal BFGS step
   82    -549.4436985833      9.43E-09 Convergence criterion met
 ---------------------------------------
 <S^2> = 1.9413
 SCF time:  CPU 1.11 s  wall 1.11 s
 SCF   energy in the final basis set = -549.4436985833
 Total energy in the final basis set = -549.4436985833
 Analysis of SCF Wavefunction
 
 --------------------------------------------------------------
 
                    Orbital Energies (a.u.)
 --------------------------------------------------------------
 
 Alpha MOs
 -- Occupied --
-67.997 -20.342 -20.260 -11.094 -11.047 -11.012  -5.977  -4.002
 -4.002  -4.002  -1.389  -1.163  -0.961  -0.845  -0.714  -0.658
 -0.608  -0.577  -0.561  -0.552  -0.518  -0.459  -0.456  -0.451
 -0.427  -0.350  -0.338  -0.268
 -- Virtual --
  0.339   0.351   0.479   0.520   0.535   0.561   0.627   0.686
  0.693   0.715   0.730   0.814   0.967
 
 Beta MOs
 -- Occupied --
-67.997 -20.317 -20.288 -11.090 -11.040 -10.981  -5.978  -4.003
 -4.003  -4.003  -1.303  -1.292  -0.872  -0.856  -0.689  -0.621
 -0.620  -0.584  -0.511  -0.499  -0.451  -0.438  -0.436  -0.423
 -0.394  -0.382  -0.371
 -- Virtual --
  0.228   0.266   0.422   0.507   0.522   0.563   0.592   0.599
  0.694   0.699   0.717   0.723   0.864   1.027
 --------------------------------------------------------------
 
          Ground-State Mulliken Net Atomic Charges

     Atom                 Charge (a.u.)    Spin (a.u.)
  --------------------------------------------------------
      1 C                     0.091241       0.087972
      2 O                    -0.114120      -1.053874
      3 O                    -0.169201       0.846956
      4 C                    -0.233887       1.178059
      5 Si                    0.697415      -0.080508
      6 H                    -0.146678       0.023057
      7 H                    -0.146843       0.021944
      8 H                    -0.154685       0.008225
      9 H                     0.062638      -0.085704
     10 C                    -0.102716       0.133805
     11 H                     0.081480      -0.049016
     12 H                     0.067970      -0.015333
     13 H                     0.067386      -0.015582
  --------------------------------------------------------
  Sum of atomic charges =    -0.000000
  Sum of spin   charges =     1.000000

 -----------------------------------------------------------------
                    Cartesian Multipole Moments
 -----------------------------------------------------------------
    Charge (ESU x 10^10)
                 0.0000
    Dipole Moment (Debye)
         X       0.1985      Y       0.0111      Z       0.4171
       Tot       0.4620
    Quadrupole Moments (Debye-Ang)
        XX     -31.0990     XY       0.1254     YY     -39.7975
        XZ      -8.5640     YZ       0.0105     ZZ     -39.6406
    Octopole Moments (Debye-Ang^2)
       XXX     -22.1451    XXY       0.8065    XYY     -36.8487
       YYY      -2.8967    XXZ     -60.8620    XYZ       0.2145
       YYZ     -15.3394    XZZ     -28.2324    YZZ      -0.9345
       ZZZ     -43.9658
    Hexadecapole Moments (Debye-Ang^3)
      XXXX   -2834.1450   XXXY      20.6573   XXYY    -641.4363
      XYYY       5.3298   YYYY     -56.7665   XXXZ      43.3325
      XXYZ       0.5194   XYYZ     118.0718   YYYZ      -3.5614
      XXZZ    -654.8313   XYZZ       2.1240   YYZZ     -77.4791
      XZZZ     369.9732   YZZZ      -4.4479   ZZZZ    -440.7760
 -----------------------------------------------------------------
****************************************
****************************************
******* Starting GSM calculation *******
****************************************
****************************************
-GSM parameters: 
Initial number of nodes:                                              2
Final desired number of nodes:                                              12
Tolerance for new node addition at interior nodes (hatrees/Angstrom):       0.10
String optimization convergence tolerance (hartrees/Angstrom):              0.25
String optimization step scaling factor (hartrees/Angstrom):                5.00
-Reading coordinates
-Aligning product to maximum coincidence with reactant
-Performing force computation on reactant and product structures
 ----------------------------------------------------------------
             Standard Nuclear Orientation (Angstroms)
    I     Atom           X                Y                Z
 ----------------------------------------------------------------
    1      C      -1.7163018227    -0.0211501692    -0.2081382359
    2      O       4.6300177205    -0.0211501692    -0.2081382359
    3      O      -2.3844305483    -0.0211501692    -1.2290798604
    4      C      -2.2892330304    -0.0149111721     1.1302947938
    5      Si     -4.1459798361     0.0384723463     1.3223474508
    6      H      -4.7656986171    -1.1576964439     0.7006302803
    7      H      -4.6945628123     1.2649888864     0.6929419009
    8      H      -4.4587742561     0.0532491283     2.7742775018
    9      H      -1.6008202218    -0.0473707209     1.9701230038
   10      C       5.2352448579    -0.0180062258    -1.4994605842
   11      H       6.3045228075     0.0895765167    -1.3234131228
   12      H       4.8547620350     0.8109534415    -2.0997293978
   13      H       5.0312537240    -0.9558052489    -2.0226554943
 ----------------------------------------------------------------
 Nuclear Repulsion Energy =   213.1370104005 hartrees
 There are       28 alpha and       27 beta electrons

                       Distance Matrix (Angstroms)
             C (  1)   O (  2)   O (  3)   C (  4)   Si(  5)   H (  6)
   O (  2)  6.346320
   O (  3)  1.220130  7.088357
   C (  4)  1.455916  7.047515  2.361303
   Si(  5)  2.872155  8.908652  3.101031  1.867416
   H (  6)  3.378819  9.507738  3.268938  2.761060  1.483713
   H (  7)  3.366918  9.455892  3.268797  2.759535  1.483724  2.423742
   H (  8)  4.052344  9.565902  4.509469  2.722909  1.485315  2.420869
   H (  9)  2.181478  6.600670  3.293878  1.086406  2.627702  3.586208
   C ( 10)  7.070468  1.426122  7.624472  7.970784  9.796590 10.303308
   H ( 11)  8.098748  2.014960  8.690171  8.937798 10.780337 11.322643
   H ( 12)  6.888352  2.078707  7.338688  7.883640  9.660264 10.211310
   H ( 13)  7.049508  2.080155  7.516363  8.025952  9.818312 10.170414
             H (  7)   H (  8)   H (  9)   C ( 10)   H ( 11)   H ( 12)
   H (  8)  2.419890
   H (  9)  3.595097  2.970638
   C ( 10) 10.249575 10.594523  7.666202
   H ( 11) 11.243984 11.516985  8.565079  1.089000
   H ( 12)  9.959657 10.539071  7.679516  1.091908  1.795789
   H ( 13) 10.339144 10.681263  7.794353  1.093075  1.789686  1.777224

 
 Applying Cartesian multipole field
    Component          Value
    ---------          -----
     (2,0,0)        1.00000E-12
     (0,2,0)        2.00000E-10
     (0,0,2)       -3.00000E-11
 Nucleus-field energy     =    -0.0000000025 hartrees
 Requested basis set is STO-3G
 There are 20 shells and 41 basis functions
 A cutoff of  1.0D-12 yielded    127 shell pairs
 There are       595 function pairs
 Smallest overlap matrix eigenvalue = 2.32E-01
 Guess from superposition of atomic densities
 Warning:  Energy on first SCF cycle will be non-variational
 An unrestricted Hartree-Fock SCF calculation will be
 performed using Pulay DIIS + Geometric Direct Minimization
 SCF converges when RMS gradient is below 1.0E-08
 ---------------------------------------
  Cycle       Energy         DIIS Error
 ---------------------------------------
    1    -547.8918087142      1.43E-01
    2    -548.6981641663      2.97E-02
    3    -543.9884456018      6.33E-02
    4    -548.8482510931      2.06E-02
    5    -548.9267055021      1.45E-02
    6    -548.9733081595      9.77E-03 Done DIIS. Switching to GDM
    7    -546.9852019634      8.92E-01 Descent step
    8    -547.4976768670      1.84E-01 Descent step
    9    -547.6889083426      1.19E-01 Descent step
   10    -547.7914998139      7.96E-02 Dog-leg BFGS step
   11    -547.8337725264      3.81E-02 Normal BFGS step
   12    -547.8423673959      2.89E-02 Normal BFGS step
   13    -547.8457881578      2.15E-02 Normal BFGS step
   14    -547.8477480110      1.77E-02 Normal BFGS step
   15    -547.8490737709      1.74E-02 Normal BFGS step
   16    -547.8514487825      4.23E-02 Dog-leg BFGS step
   17    -547.8620202200      9.21E-02 Dog-leg BFGS step
   18    -547.8782369107      7.88E-02 Dog-leg BFGS step
   19    -547.9163404371      2.71E-01 Descent step
   20    -547.9420650135      3.83E-01 Descent step
   21    -548.0274427717      5.54E-01 Descent step
   22    -548.1913637591      1.76E-01 Descent step
   GDM::BFGS:   rebuilding Hinv to be positive definite
   23    -548.3184111334      7.09E-01 Descent step
   GDM::BFGS:   rebuilding Hinv to be positive definite
   24    -548.6865343634      2.68E-01 Descent step
   25    -548.8631083936      1.85E-01 Descent step
   26    -548.9542577832      1.41E-01 Dog-leg BFGS step
   27    -549.0290685341      1.58E-01 Dog-leg BFGS step
   28    -549.0510054461      3.52E-01 Descent step
   29    -549.2611727376      2.71E-01 Descent step
   30    -549.3815243926      7.95E-02 Dog-leg BFGS step
   31    -549.3984441716      1.10E-01 Dog-leg BFGS step
   32    -549.4314052141      3.84E-02 Dog-leg BFGS step
   33    -549.4028964524      9.54E-02 Line search: overstep
   34    -549.4337853713      3.06E-02 Dog-leg BFGS step
   35    -549.4377303335      2.47E-02 Dog-leg BFGS step
   36    -549.4389885857      3.02E-02 Dog-leg BFGS step
   37    -549.4392060083      1.87E-02 Dog-leg BFGS step
   38    -549.4379422256      1.12E-01 Line search: overstep
   39    -549.4401811081      1.90E-02 Descent step
   40    -549.4410293897      1.41E-02 Dog-leg BFGS step
   41    -549.3912916702      1.44E-01 Line search: overstep
   42    -549.4406466402      7.17E-03 Line search: overstep
   43    -549.4410367750      1.33E-02 Dog-leg BFGS step
   44    -549.4416638056      1.22E-02 Dog-leg BFGS step
   45    -549.4422654198      9.92E-03 Dog-leg BFGS step
   46    -549.4427490902      6.32E-03 Dog-leg BFGS step
   47    -549.4430320130      6.62E-03 Dog-leg BFGS step
   48    -549.4433481924      3.70E-03 Dog-leg BFGS step
   49    -549.4435206868      2.46E-03 Dog-leg BFGS step
   50    -549.4435938609      2.07E-03 Normal BFGS step
   51    -549.4436227711      1.69E-03 Normal BFGS step
   52    -549.4436921205      5.81E-04 Normal BFGS step
   53    -549.4436959064      3.15E-04 Normal BFGS step
   54    -549.4436972313      1.85E-04 Normal BFGS step
   55    -549.4436975482      9.32E-05 Normal BFGS step
   56    -549.4436976605      8.68E-05 Normal BFGS step
   57    -549.4436976938      8.62E-05 Normal BFGS step
   58    -549.4436977195      8.54E-05 Normal BFGS step
   59    -549.4436977456      8.44E-05 Normal BFGS step
   60    -549.4436977916      8.23E-05 Normal BFGS step
   61    -549.4436978816      8.26E-05 Normal BFGS step
   62    -549.4436980682      1.10E-04 Normal BFGS step
   63    -549.4436984056      1.26E-04 Normal BFGS step
   64    -549.4436988573      9.89E-05 Normal BFGS step
   65    -549.4436992060      6.82E-05 Normal BFGS step
   66    -549.4436993336      4.41E-05 Normal BFGS step
   67    -549.4436993576      2.06E-05 Normal BFGS step
   68    -549.4436993624      1.02E-05 Normal BFGS step
   69    -549.4436993638      3.93E-06 Normal BFGS step
   70    -549.4436993641      2.15E-06 Normal BFGS step
   71    -549.4436993642      1.14E-06 Normal BFGS step
   72    -549.4436993642      5.06E-07 Normal BFGS step
   73    -549.4436993642      3.03E-07 Normal BFGS step
   74    -549.4436993642      1.15E-07 Normal BFGS step
   GDM::WARNING energy changes are now smaller than effective accuracy.
   GDM::        calculation will continue, but THRESH should be increased
   GDM::        or SCF_CONVERGENCE decreased.
   GDM::        effective_thresh =   6.760050585090773E-009
   75    -549.4436993642      6.96E-08 Normal BFGS step
   76    -549.4436993642      4.36E-08 Normal BFGS step
   GDM::WARNING energy changes are now smaller than effective accuracy.
   GDM::        calculation will continue, but THRESH should be increased
   GDM::        or SCF_CONVERGENCE decreased.
   GDM::        effective_thresh =   6.760050585090773E-009
   77    -549.4436993642      3.88E-08 Normal BFGS step
   78    -549.4436993642      3.27E-08 Normal BFGS step
   79    -549.4436993642      3.18E-08 Normal BFGS step
   GDM::WARNING energy changes are now smaller than effective accuracy.
   GDM::        calculation will continue, but THRESH should be increased
   GDM::        or SCF_CONVERGENCE decreased.
   GDM::        effective_thresh =   6.760050585090773E-009
   80    -549.4436993642      2.44E-08 Normal BFGS step
   81    -549.4436993642      1.62E-08 Normal BFGS step
   82    -549.4436993642      9.41E-09 Convergence criterion met
 ---------------------------------------
 <S^2> = 1.9413
 SCF time:  CPU 1.10 s  wall 1.10 s
 SCF   energy in the final basis set = -549.4436993642
 Total energy in the final basis set = -549.4436993642
 Analysis of SCF Wavefunction
 
 --------------------------------------------------------------
 
                    Orbital Energies (a.u.)
 --------------------------------------------------------------
 
 Alpha MOs
 -- Occupied --
-67.997 -20.342 -20.260 -11.094 -11.047 -11.012  -5.977  -4.002
 -4.002  -4.002  -1.389  -1.163  -0.961  -0.845  -0.714  -0.658
 -0.608  -0.577  -0.561  -0.552  -0.518  -0.459  -0.456  -0.451
 -0.427  -0.350  -0.338  -0.268
 -- Virtual --
  0.339   0.351   0.479   0.520   0.535   0.561   0.627   0.686
  0.693   0.715   0.730   0.814   0.967
 
 Beta MOs
 -- Occupied --
-67.997 -20.317 -20.288 -11.090 -11.040 -10.981  -5.978  -4.003
 -4.003  -4.003  -1.303  -1.292  -0.872  -0.856  -0.689  -0.621
 -0.620  -0.584  -0.511  -0.499  -0.451  -0.438  -0.436  -0.423
 -0.394  -0.382  -0.371
 -- Virtual --
  0.228   0.266   0.422   0.507   0.522   0.563   0.592   0.599
  0.694   0.699   0.717   0.723   0.864   1.027
 --------------------------------------------------------------
 
          Ground-State Mulliken Net Atomic Charges

     Atom                 Charge (a.u.)    Spin (a.u.)
  --------------------------------------------------------
      1 C                     0.091243       0.087986
      2 O                    -0.114121      -1.053872
      3 O                    -0.169203       0.846947
      4 C                    -0.233890       1.178052
      5 Si                    0.697419      -0.080508
      6 H                    -0.146679       0.023058
      7 H                    -0.146843       0.021944
      8 H                    -0.154686       0.008224
      9 H                     0.062639      -0.085703
     10 C                    -0.102719       0.133803
     11 H                     0.081482      -0.049017
     12 H                     0.067971      -0.015333
     13 H                     0.067387      -0.015582
  --------------------------------------------------------
  Sum of atomic charges =    -0.000000
  Sum of spin   charges =     1.000000

 -----------------------------------------------------------------
                    Cartesian Multipole Moments
 -----------------------------------------------------------------
    Charge (ESU x 10^10)
                -0.0000
    Dipole Moment (Debye)
         X       0.1985      Y       0.0111      Z       0.4171
       Tot       0.4620
    Quadrupole Moments (Debye-Ang)
        XX     -31.7804     XY       0.1021     YY     -39.7980
        XZ      -9.3210     YZ      -0.0007     ZZ     -39.8142
    Octopole Moments (Debye-Ang^2)
       XXX     139.7350    XXY       1.0810    XYY      31.4516
       YYY      -0.3715    XXZ     -23.6216    XYZ       0.3716
       YYZ      -7.0561    XZZ      43.6744    YZZ      -0.0963
       ZZZ     -19.1592
    Hexadecapole Moments (Debye-Ang^3)
      XXXX   -3235.7492   XXXY      14.6008   XXYY    -632.2058
      XYYY       8.3055   YYYY     -56.6280   XXXZ     249.8311
      XXYZ       0.2283   XYYZ     137.8388   YYYZ      -2.5107
      XXZZ    -663.4739   XYZZ       2.7270   YYZZ     -72.7952
      XZZZ     419.3663   YZZZ      -3.4578   ZZZZ    -414.4870
 -----------------------------------------------------------------
 Calculating analytic gradient of the SCF energy
 Gradient of Coulomb and Exchange Energy
            1           2           3           4           5           6
    1 -11.5396263   2.1716416   5.3384902  -3.6466403   9.3084693   2.6035284
    2   0.0808483   0.0190505   0.0846972   0.1187892  -0.2419039   3.9899315
    3  -1.6233218  -7.7408191  15.6006548  -5.4117510  -4.1306596   1.7478368
            7           8           9          10          11          12
    1   2.3684042   1.3437230  -3.0079606  -2.7539120  -3.4916404   0.9279988
    2  -4.1245265  -0.0573762   0.1443959  -0.0260970  -0.3171829  -2.5239808
    3   1.7729358  -4.7734767  -3.5746171   4.2863892  -0.2805839   2.1863073
           13
    1   0.3775240
    2   2.8533547
    3   1.9411053
 Gradient of SCF Energy
            1           2           3           4           5           6
    1  -0.0105547   0.0080470   0.0096969   0.0031571   0.0271273  -0.0142546
    2   0.0004978   0.0001684  -0.0002678  -0.0000429  -0.0009621  -0.0256597
    3  -0.0235779  -0.0153199   0.0297193  -0.0005123  -0.0136102  -0.0126501
            7           8           9          10          11          12
    1  -0.0127123  -0.0053637   0.0028965   0.0049235  -0.0042315  -0.0045971
    2   0.0264476   0.0003516  -0.0003642   0.0024203  -0.0009711  -0.0022553
    3  -0.0127661   0.0322453   0.0011717   0.0035646   0.0065051   0.0029566
           13
    1  -0.0041345
    2   0.0006374
    3   0.0022737
 Max gradient component =       3.225E-02
 RMS gradient           =       1.257E-02
 Gradient time:  CPU 0.11 s  wall 0.11 s
the nuclear gradient is: 
-0.0199454 0.0009408 -0.0445555
0.0152066 0.0003182 -0.0289502
0.0183244 -0.0005061 0.0561610
0.0059659 -0.0000812 -0.0009681
0.0512628 -0.0018180 -0.0257194
-0.0269371 -0.0484896 -0.0239052
-0.0240226 0.0499785 -0.0241243
-0.0101359 0.0006644 0.0609345
0.0054736 -0.0006882 0.0022142
0.0093041 0.0045737 0.0067362
-0.0079963 -0.0018351 0.0122929
-0.0086873 -0.0042619 0.0055871
-0.0078130 0.0012045 0.0042967
 ----------------------------------------------------------------
             Standard Nuclear Orientation (Angstroms)
    I     Atom           X                Y                Z
 ----------------------------------------------------------------
    1      C       0.2531899583    -0.0200196382    -0.1483733842
    2      O       1.5547032996    -0.0184009827     0.1961665022
    3      O      -0.1314311124    -0.0164978617    -1.3062904899
    4      C      -0.6431824749    -0.0201395492     0.9988879269
    5      Si     -2.4873668977     0.0301975651     0.7095909984
    6      H      -2.9246647519    -1.1640708936    -0.0545404153
    7      H      -2.8593724036     1.2587090405    -0.0345923860
    8      H      -3.1613280628     0.0384472977     2.0331724525
    9      H      -0.1925328659    -0.0553289178     1.9867917065
   10      C       2.4702195080    -0.0090589702    -0.8972528951
   11      H       3.4585988159     0.0990624833    -0.4530252692
   12      H       2.2541534524     0.8219781541    -1.5717576872
   13      H       2.4090135350    -0.9448777272    -1.4587770597
 ----------------------------------------------------------------
 Nuclear Repulsion Energy =   283.7103677257 hartrees
 There are       28 alpha and       27 beta electrons

                       Distance Matrix (Angstroms)
             C (  1)   O (  2)   O (  3)   C (  4)   Si(  5)   H (  6)
   O (  2)  1.346346
   O (  3)  1.220130  2.258413
   C (  4)  1.455916  2.339886  2.361303
   Si(  5)  2.872155  4.074837  3.101031  1.867416
   H (  6)  3.378819  4.630351  3.268938  2.761060  1.483713
   H (  7)  3.366918  4.600905  3.268797  2.759535  1.483724  2.423742
   H (  8)  4.052344  5.061499  4.509469  2.722909  1.485315  2.420869
   H (  9)  2.181478  2.502106  3.293878  1.086406  2.627702  3.586208
   C ( 10)  2.340120  1.426122  2.633620  3.645373  5.211636  5.581128
   H ( 11)  3.222055  2.014960  3.691847  4.352800  6.058954  6.519229
   H ( 12)  2.595927  2.078707  2.542544  3.963829  5.321042  5.750348
   H ( 13)  2.687024  2.080155  2.709059  4.026308  5.443081  5.519787
             H (  7)   H (  8)   H (  9)   C ( 10)   H ( 11)   H ( 12)
   H (  8)  2.419890
   H (  9)  3.595097  2.970638
   C ( 10)  5.545806  6.348541  3.925571
   H ( 11)  6.437129  7.071654  4.394008  1.089000
   H ( 12)  5.357402  6.552624  4.406724  1.091908  1.795789
   H ( 13)  5.885574  6.647507  4.408093  1.093075  1.789686  1.777224

 
 Applying Cartesian multipole field
    Component          Value
    ---------          -----
     (2,0,0)        1.00000E-12
     (0,2,0)        2.00000E-10
     (0,0,2)       -3.00000E-11
 Nucleus-field energy     =    -0.0000000009 hartrees
 Requested basis set is STO-3G
 There are 20 shells and 41 basis functions
 A cutoff of  1.0D-12 yielded    195 shell pairs
 There are       876 function pairs
 Smallest overlap matrix eigenvalue = 2.30E-01
 Guess from superposition of atomic densities
 Warning:  Energy on first SCF cycle will be non-variational
 An unrestricted Hartree-Fock SCF calculation will be
 performed using Pulay DIIS + Geometric Direct Minimization
 SCF converges when RMS gradient is below 1.0E-08
 ---------------------------------------
  Cycle       Energy         DIIS Error
 ---------------------------------------
    1    -548.5420888241      1.60E-01
    2    -549.3375685318      2.32E-02
    3    -549.4788257927      1.49E-02
    4    -549.5305577742      2.17E-03 Done DIIS. Switching to GDM
    5    -549.5364555307      2.14E-02 Normal BFGS step
    6    -549.5391624172      2.71E-02 Normal BFGS step
    7    -549.5457676968      2.50E-02 Normal BFGS step
    8    -549.5478308158      1.96E-02 Normal BFGS step
    9    -549.5495859067      3.43E-03 Normal BFGS step
   10    -549.5497180156      2.61E-03 Normal BFGS step
   11    -549.5497558237      7.34E-04 Normal BFGS step
   12    -549.5497634775      3.43E-04 Normal BFGS step
   13    -549.5497640947      1.26E-04 Normal BFGS step
   14    -549.5497642501      2.46E-05 Normal BFGS step
   15    -549.5497642591      1.49E-05 Normal BFGS step
   16    -549.5497642640      9.32E-06 Normal BFGS step
   17    -549.5497642647      7.47E-06 Normal BFGS step
   18    -549.5497642651      5.40E-06 Normal BFGS step
   19    -549.5497642652      3.84E-06 Normal BFGS step
   20    -549.5497642653      2.24E-06 Normal BFGS step
   21    -549.5497642654      1.27E-06 Normal BFGS step
   22    -549.5497642654      2.91E-07 Normal BFGS step
   23    -549.5497642654      1.30E-07 Normal BFGS step
   24    -549.5497642654      6.46E-08 Normal BFGS step
   GDM::WARNING energy changes are now smaller than effective accuracy.
   GDM::        calculation will continue, but THRESH should be increased
   GDM::        or SCF_CONVERGENCE decreased.
   GDM::        effective_thresh =   4.892057546410826E-010
   25    -549.5497642654      1.75E-08 Normal BFGS step
   26    -549.5497642654      4.79E-09 Convergence criterion met
 ---------------------------------------
 <S^2> = 1.0118
 SCF time:  CPU 0.40 s  wall 0.40 s
 SCF   energy in the final basis set = -549.5497642654
 Total energy in the final basis set = -549.5497642654
 Analysis of SCF Wavefunction
 
 --------------------------------------------------------------
 
                    Orbital Energies (a.u.)
 --------------------------------------------------------------
 
 Alpha MOs
 -- Occupied --
-67.990 -20.292 -20.288 -11.137 -11.101 -10.997  -5.969  -3.995
 -3.995  -3.994  -1.399  -1.300  -0.966  -0.887  -0.705  -0.660
 -0.631  -0.608  -0.576  -0.538  -0.535  -0.444  -0.440  -0.424
 -0.410  -0.382  -0.371  -0.326
 -- Virtual --
  0.358   0.480   0.519   0.528   0.568   0.597   0.672   0.693
  0.695   0.717   0.768   0.846   1.028
 
 Beta MOs
 -- Occupied --
-67.991 -20.291 -20.273 -11.153 -11.101 -10.969  -5.971  -3.998
 -3.997  -3.996  -1.378  -1.261  -0.935  -0.845  -0.707  -0.655
 -0.614  -0.613  -0.562  -0.527  -0.491  -0.427  -0.426  -0.414
 -0.397  -0.342  -0.310
 -- Virtual --
  0.250   0.425   0.506   0.517   0.532   0.596   0.600   0.668
  0.693   0.711   0.724   0.758   0.859   1.036
 --------------------------------------------------------------
 
          Ground-State Mulliken Net Atomic Charges

     Atom                 Charge (a.u.)    Spin (a.u.)
  --------------------------------------------------------
      1 C                     0.261807      -0.618955
      2 O                    -0.265329      -0.046022
      3 O                    -0.225457       0.680696
      4 C                    -0.235308       1.139657
      5 Si                    0.698550      -0.126114
      6 H                    -0.149554       0.025632
      7 H                    -0.149845       0.024740
      8 H                    -0.157443       0.002996
      9 H                     0.063355      -0.082668
     10 C                    -0.058777       0.003234
     11 H                     0.078206       0.000645
     12 H                     0.071228      -0.001809
     13 H                     0.068566      -0.002032
  --------------------------------------------------------
  Sum of atomic charges =     0.000000
  Sum of spin   charges =     1.000000

 -----------------------------------------------------------------
                    Cartesian Multipole Moments
 -----------------------------------------------------------------
    Charge (ESU x 10^10)
                 0.0000
    Dipole Moment (Debye)
         X       0.2004      Y       0.0128      Z       0.3837
       Tot       0.4330
    Quadrupole Moments (Debye-Ang)
        XX     -37.9855     XY       0.0252     YY     -39.6860
        XZ      -3.0029     YZ      -0.0394     ZZ     -41.9664
    Octopole Moments (Debye-Ang^2)
       XXX      45.2879    XXY       0.2193    XYY      14.3645
       YYY      -0.2404    XXZ      -8.6062    XYZ       0.1528
       YYZ      -3.7126    XZZ      16.1589    YZZ       0.0355
       ZZZ      -5.8198
    Hexadecapole Moments (Debye-Ang^3)
      XXXX    -904.7224   XXXY       4.3153   XXYY    -171.2411
      XYYY       3.9478   YYYY     -56.5565   XXXZ     127.2248
      XXYZ      -0.0995   XYYZ      40.0184   YYYZ      -0.6216
      XXZZ    -202.4608   XYZZ       1.4219   YYZZ     -44.5844
      XZZZ     135.0606   YZZZ      -1.4805   ZZZZ    -233.7922
 -----------------------------------------------------------------
 Calculating analytic gradient of the SCF energy
 Gradient of Coulomb and Exchange Energy
            1           2           3           4           5           6
    1  -1.3842664  -9.6768324   5.6005049   0.3976179  12.2931513   2.2803869
    2   0.0938423   0.0682652   0.0416401   0.1287836  -0.2463028   4.2166315
    3  -1.7820702 -10.7999689  18.3833058  -7.5391626  -2.2457349   2.4722225
            7           8           9          10          11          12
    1   2.0571559   2.7154622  -1.9354559  -7.4862399  -4.2586546  -0.0062871
    2  -4.3719750  -0.0380396   0.1832345  -0.0331597  -0.3954737  -3.3243936
    3   2.4022621  -4.5058784  -4.9892839   4.2707554  -1.3403667   3.0847766
           13
    1  -0.5965429
    2   3.6769472
    3   2.5891433
 Gradient of SCF Energy
            1           2           3           4           5           6
    1   0.0205465  -0.0566300   0.0304265   0.0155752   0.0247645  -0.0098227
    2   0.0003880   0.0001241  -0.0004413   0.0001448  -0.0004994  -0.0256665
    3  -0.0838610  -0.0247237   0.0989881   0.0014147  -0.0041471  -0.0161501
            7           8           9          10          11          12
    1  -0.0084913  -0.0135119   0.0009494   0.0081439  -0.0034982  -0.0048685
    2   0.0264701   0.0002007  -0.0005902   0.0014191  -0.0005511  -0.0009756
    3  -0.0156709   0.0299253   0.0040909   0.0004004   0.0040694   0.0029445
           13
    1  -0.0035833
    2  -0.0000227
    3   0.0027196
 Max gradient component =       9.899E-02
 RMS gradient           =       2.590E-02
 Gradient time:  CPU 0.21 s  wall 0.21 s
the nuclear gradient is: 
0.0388270 0.0007332 -0.1584734
-0.1070147 0.0002345 -0.0467208
0.0574975 -0.0008340 0.1870593
0.0294327 0.0002737 0.0026734
0.0467979 -0.0009437 -0.0078368
-0.0185622 -0.0485024 -0.0305191
-0.0160461 0.0500211 -0.0296136
-0.0255337 0.0003793 0.0565504
0.0017941 -0.0011154 0.0077306
0.0153897 0.0026818 0.0007566
-0.0066107 -0.0010415 0.0076900
-0.0092000 -0.0018436 0.0055642
-0.0067714 -0.0000429 0.0051392
-Beginning Iterations

STARTING ITERATION 1
-creating high-density LST string
The arclength distribution of nodes is: 
0.00000  1.00000  
-Projecting tangential components out of gradient vectors
The magnitudes of the perpendicular gradient are: 
0.15  0.31  
-Adding node to reactant side at normalized arclength position: 0.09

-Performing force calculation on new reactant node
 ----------------------------------------------------------------
             Standard Nuclear Orientation (Angstroms)
    I     Atom           X                Y                Z
 ----------------------------------------------------------------
    1      C      -1.5361111640    -0.0210396034    -0.2031521633
    2      O       4.3494805271    -0.0209018787    -0.1693576494
    3      O      -2.1804666392    -0.0207133236    -1.2377409717
    4      C      -2.1400706630    -0.0153666970     1.1179683562
    5      Si     -3.9958045885     0.0376801807     1.2660412660
    6      H      -4.5992123999    -1.1591140276     0.6315413709
    7      H      -4.5284736916     1.2652196934     0.6264305417
    8      H      -4.3416674915     0.0519584870     2.7091095401
    9      H      -1.4718583823    -0.0481265877     1.9728702929
   10      C       4.9832991211    -0.0173437746    -1.4449528320
   11      H       6.0472500769     0.0905513028    -1.2440657931
   12      H       4.6180316081     0.8124814679    -2.0522911527
   13      H       4.7926828536    -0.9552555212    -1.9718306727
 ----------------------------------------------------------------
 Nuclear Repulsion Energy =   215.9101776426 hartrees
 There are       28 alpha and       27 beta electrons

                       Distance Matrix (Angstroms)
             C (  1)   O (  2)   O (  3)   C (  4)   Si(  5)   H (  6)
   O (  2)  5.885689
   O (  3)  1.218839  6.616771
   C (  4)  1.452639  6.616004  2.356062
   Si(  5)  2.865671  8.468033  3.093184  1.862388
   H (  6)  3.372613  9.056272  3.261978  2.755385  1.482905
   H (  7)  3.361087  9.005857  3.262192  2.754266  1.483136  2.425371
   H (  8)  4.044471  9.155705  4.500411  2.717221  1.484005  2.418536
   H (  9)  2.177139  6.203053  3.287994  1.085559  2.622456  3.579637
   C ( 10)  6.636625  1.424388  7.166763  7.570401  9.379596  9.871170
   H ( 11)  7.655281  2.012422  8.228471  8.521892 10.352120 10.882405
   H ( 12)  6.479780  2.076556  6.897629  7.510514  9.263359  9.800395
   H ( 13)  6.637365  2.078065  7.073689  7.648093  9.418453  9.748169
             H (  7)   H (  8)   H (  9)   C ( 10)   H ( 11)   H ( 12)
   H (  8)  2.417530
   H (  9)  3.588966  2.964434
   C ( 10)  9.818830 10.208626  7.304213
   H ( 11) 10.803913 11.115696  8.179542  1.088112
   H ( 12)  9.541440 10.174750  7.350465  1.091279  1.793621
   H ( 13)  9.928012 10.313197  7.458420  1.092526  1.788097  1.778165

 
 Applying Cartesian multipole field
    Component          Value
    ---------          -----
     (2,0,0)        1.00000E-12
     (0,2,0)        2.00000E-10
     (0,0,2)       -3.00000E-11
 Nucleus-field energy     =    -0.0000000023 hartrees
 Requested basis set is STO-3G
 There are 20 shells and 41 basis functions
 A cutoff of  1.0D-12 yielded    130 shell pairs
 There are       616 function pairs
 Smallest overlap matrix eigenvalue = 2.32E-01
 Guess from superposition of atomic densities
 Warning:  Energy on first SCF cycle will be non-variational
 An unrestricted Hartree-Fock SCF calculation will be
 performed using Pulay DIIS + Geometric Direct Minimization
 SCF converges when RMS gradient is below 1.0E-08
 ---------------------------------------
  Cycle       Energy         DIIS Error
 ---------------------------------------
    1    -547.9118206919      1.44E-01
    2    -548.7058072442      2.96E-02
    3    -544.0494396578      6.30E-02
    4    -548.8541030042      2.06E-02
    5    -548.9325285374      1.44E-02
    6    -548.9787414169      9.71E-03 Done DIIS. Switching to GDM
    7    -547.0139990747      8.89E-01 Descent step
    8    -547.5218069958      1.85E-01 Descent step
    9    -547.7099781241      1.08E-01 Descent step
   10    -547.8109464170      7.74E-02 Dog-leg BFGS step
   11    -547.8527184303      3.80E-02 Normal BFGS step
   12    -547.8611695625      2.88E-02 Normal BFGS step
   13    -547.8645309928      2.53E-02 Normal BFGS step
   14    -547.8667655656      2.41E-02 Normal BFGS step
   15    -547.8696580901      3.52E-02 Dog-leg BFGS step
   16    -547.8815513040      7.68E-02 Dog-leg BFGS step
   17    -547.9089072004      1.47E-01 Dog-leg BFGS step
   18    -547.9632350919      1.33E-01 Descent step
   GDM::BFGS:   rebuilding Hinv to be positive definite
   19    -548.0845468296      4.11E-01 Descent step
   20    -548.2659826395      4.49E-01 Descent step
   GDM::BFGS:   rebuilding Hinv to be positive definite
   21    -548.5511968748      1.60E+00 Descent step
   22    -549.1475079563      3.12E-01 Descent step
   23    -549.3040577822      1.53E-01 Descent step
   24    -549.3769750433      3.33E-02 Dog-leg BFGS step
   25    -549.3490750038      1.21E-01 Line search: overstep
   26    -549.3782212113      3.64E-02 Dog-leg BFGS step
   27    -549.3856511183      1.68E-02 Dog-leg BFGS step
   28    -549.3867186575      2.25E-02 Dog-leg BFGS step
   29    -549.3889545012      2.36E-02 Dog-leg BFGS step
   30    -549.3907074123      1.84E-02 Dog-leg BFGS step
   31    -549.3929592588      3.30E-02 Dog-leg BFGS step
   32    -549.3970731729      2.92E-02 Dog-leg BFGS step
   33    -549.4018047182      1.94E-02 Dog-leg BFGS step
   34    -549.4053555895      1.42E-02 Dog-leg BFGS step
   35    -549.4073008891      1.81E-02 Dog-leg BFGS step
   36    -549.4085904795      2.84E-02 Dog-leg BFGS step
   37    -549.4120802953      1.01E-01 Line search: understep
   38    -549.3082609329      5.00E-01 Line search: overstep
   39    -549.4149241427      3.01E-02 Descent step
   40    -549.4168491610      3.13E-02 Dog-leg BFGS step
   41    -549.4215362075      2.98E-02 Normal BFGS step
   42    -549.4233896511      1.09E-02 Normal BFGS step
   43    -549.4243279591      4.09E-03 Normal BFGS step
   44    -549.4244318302      3.65E-03 Normal BFGS step
   45    -549.4244901040      3.88E-03 Normal BFGS step
   46    -549.4245687117      4.51E-03 Normal BFGS step
   47    -549.4247183599      5.98E-03 Normal BFGS step
   48    -549.4256498834      1.77E-02 Dog-leg BFGS step
   49    -549.4282327380      2.83E-02 Dog-leg BFGS step
   50    -549.4365379971      2.67E-02 Dog-leg BFGS step
   51    -549.4369105941      2.62E-02 Dog-leg BFGS step
   52    -549.4470328304      1.27E-02 Dog-leg BFGS step
   53    -549.4496646422      1.36E-02 Normal BFGS step
   54    -549.4498834607      1.29E-02 Normal BFGS step
   55    -549.4514645787      6.02E-03 Normal BFGS step
   56    -549.4517402210      3.31E-03 Normal BFGS step
   57    -549.4518359353      2.09E-03 Normal BFGS step
   58    -549.4518656979      1.48E-03 Normal BFGS step
   59    -549.4518754414      5.75E-04 Normal BFGS step
   60    -549.4518774429      5.76E-04 Normal BFGS step
   61    -549.4518784959      5.80E-04 Normal BFGS step
   62    -549.4518795259      5.86E-04 Normal BFGS step
   63    -549.4518813913      5.98E-04 Normal BFGS step
   64    -549.4518859495      6.27E-04 Normal BFGS step
   65    -549.4518978814      1.14E-03 Normal BFGS step
   66    -549.4519359891      2.35E-03 Dog-leg BFGS step
   67    -549.4520606130      5.07E-03 Dog-leg BFGS step
   68    -549.4523432250      6.53E-03 Dog-leg BFGS step
   69    -549.4530255609      5.58E-03 Dog-leg BFGS step
   70    -549.4534497569      3.86E-03 Dog-leg BFGS step
   71    -549.4534465730      4.18E-03 Line search: overstep
   72    -549.4535424756      3.05E-03 Dog-leg BFGS step
   73    -549.4536192727      1.18E-03 Normal BFGS step
   74    -549.4536392686      7.23E-04 Normal BFGS step
   75    -549.4536452595      1.99E-04 Normal BFGS step
   76    -549.4536459369      5.73E-05 Normal BFGS step
   77    -549.4536460254      3.97E-05 Normal BFGS step
   78    -549.4536460403      2.57E-05 Normal BFGS step
   79    -549.4536460464      9.77E-06 Normal BFGS step
   80    -549.4536460481      6.94E-06 Normal BFGS step
   81    -549.4536460488      5.03E-06 Normal BFGS step
   82    -549.4536460490      4.08E-06 Normal BFGS step
   83    -549.4536460491      3.19E-06 Normal BFGS step
   84    -549.4536460492      2.58E-06 Normal BFGS step
   85    -549.4536460493      2.71E-06 Normal BFGS step
   86    -549.4536460494      1.58E-06 Normal BFGS step
   87    -549.4536460494      6.88E-07 Normal BFGS step
   88    -549.4536460494      2.55E-07 Normal BFGS step
   89    -549.4536460495      1.30E-07 Normal BFGS step
   90    -549.4536460495      7.35E-08 Normal BFGS step
   91    -549.4536460495      3.65E-08 Normal BFGS step
   92    -549.4536460495      1.21E-08 Normal BFGS step
   93    -549.4536460495      5.65E-09 Convergence criterion met
 ---------------------------------------
 <S^2> = 2.0754
 SCF time:  CPU 1.31 s  wall 1.32 s
 SCF   energy in the final basis set = -549.4536460495
 Total energy in the final basis set = -549.4536460495
 Analysis of SCF Wavefunction
 
 --------------------------------------------------------------
 
                    Orbital Energies (a.u.)
 --------------------------------------------------------------
 
 Alpha MOs
 -- Occupied --
-67.992 -20.326 -20.289 -11.091 -11.027 -10.999  -5.972  -3.998
 -3.997  -3.996  -1.363  -1.304  -0.934  -0.873  -0.684  -0.640
 -0.621  -0.586  -0.549  -0.536  -0.500  -0.455  -0.452  -0.448
 -0.421  -0.416  -0.383  -0.343
 -- Virtual --
  0.284   0.391   0.493   0.526   0.555   0.569   0.600   0.694
  0.699   0.704   0.718   0.860   1.020
 
 Beta MOs
 -- Occupied --
-67.994 -20.311 -20.260 -11.094 -11.069 -10.974  -5.974  -4.001
 -3.999  -3.999  -1.313  -1.165  -0.884  -0.846  -0.713  -0.633
 -0.595  -0.578  -0.562  -0.500  -0.460  -0.445  -0.425  -0.419
 -0.414  -0.339  -0.266
 -- Virtual --
  0.247   0.350   0.412   0.510   0.523   0.553   0.594   0.628
  0.693   0.714   0.720   0.731   0.838   0.979
 --------------------------------------------------------------
 
          Ground-State Mulliken Net Atomic Charges

     Atom                 Charge (a.u.)    Spin (a.u.)
  --------------------------------------------------------
      1 C                     0.114274      -1.512144
      2 O                    -0.114641       1.053289
      3 O                    -0.172742       0.610585
      4 C                    -0.244837       1.094284
      5 Si                    0.699459      -0.165834
      6 H                    -0.148361       0.028075
      7 H                    -0.148696       0.027159
      8 H                    -0.156543      -0.002341
      9 H                     0.057445      -0.079784
     10 C                    -0.103003      -0.133583
     11 H                     0.081879       0.049291
     12 H                     0.068148       0.015373
     13 H                     0.067618       0.015631
  --------------------------------------------------------
  Sum of atomic charges =    -0.000000
  Sum of spin   charges =     1.000000

 -----------------------------------------------------------------
                    Cartesian Multipole Moments
 -----------------------------------------------------------------
    Charge (ESU x 10^10)
                -0.0000
    Dipole Moment (Debye)
         X       0.5484      Y       0.0170      Z       0.2796
       Tot       0.6158
    Quadrupole Moments (Debye-Ang)
        XX     -33.0595     XY       0.0854     YY     -39.8166
        XZ      -8.3620     YZ       0.0051     ZZ     -40.1723
    Octopole Moments (Debye-Ang^2)
       XXX     135.2931    XXY       1.0540    XYY      30.0146
       YYY      -0.3590    XXZ     -22.1552    XYZ       0.3725
       YYZ      -6.9095    XZZ      41.5454    YZZ      -0.0985
       ZZZ     -18.1593
    Hexadecapole Moments (Debye-Ang^3)
      XXXX   -2957.0786   XXXY      13.3389   XXYY    -575.1362
      XYYY       7.8335   YYYY     -56.7497   XXXZ     249.0536
      XXYZ       0.1573   XYYZ     126.4300   YYYZ      -2.3007
      XXZZ    -610.0709   XYZZ       2.6247   YYZZ     -69.3656
      XZZZ     386.6464   YZZZ      -3.2352   ZZZZ    -394.7214
 -----------------------------------------------------------------
 Calculating analytic gradient of the SCF energy
 Gradient of Coulomb and Exchange Energy
            1           2           3           4           5           6
    1 -11.1385292   2.1586348   4.6256143  -3.2892466   9.4970142   2.5644508
    2   0.0853453   0.0220009   0.0812259   0.1087811  -0.2391312   4.0108905
    3  -0.8624665  -7.6688684  14.9451038  -5.7577584  -3.9493558   1.8042470
            7           8           9          10          11          12
    1   2.3287697   1.4586373  -2.9395083  -2.9365515  -3.5163525   0.8681462
    2  -4.1462280  -0.0561937   0.1497543  -0.0232087  -0.3217652  -2.5585314
    3   1.8204791  -4.7546407  -3.6729809   4.2659909  -0.3629667   2.2264086
           13
    1   0.3189208
    2   2.8870601
    3   1.9668081
 Gradient of SCF Energy
            1           2           3           4           5           6
    1  -0.0344673   0.0092348   0.0420481  -0.0081966   0.0285338  -0.0133225
    2   0.0004199   0.0001871  -0.0003249   0.0003546  -0.0011302  -0.0255588
    3  -0.0924444  -0.0166977   0.0912527   0.0070341  -0.0122684  -0.0127795
            7           8           9          10          11          12
    1  -0.0118252  -0.0057581   0.0029717   0.0043725  -0.0052572  -0.0043414
    2   0.0263942   0.0003413  -0.0004959   0.0023783  -0.0009987  -0.0024342
    3  -0.0128723   0.0315208   0.0005703   0.0042566   0.0062809   0.0034436
           13
    1  -0.0039926
    2   0.0008673
    3   0.0027032
 Max gradient component =       9.244E-02
 RMS gradient           =       2.505E-02
 Gradient time:  CPU 0.11 s  wall 0.11 s
the nuclear gradient is: 
-0.0651334 0.0007934 -0.1746937
0.0174512 0.0003536 -0.0315538
0.0794590 -0.0006140 0.1724417
-0.0154892 0.0006701 0.0132924
0.0539209 -0.0021357 -0.0231838
-0.0251758 -0.0482989 -0.0241497
-0.0223463 0.0498775 -0.0243249
-0.0108813 0.0006449 0.0595654
0.0056157 -0.0009371 0.0010778
0.0082628 0.0044943 0.0080438
-0.0099346 -0.0018873 0.0118692
-0.0082041 -0.0046000 0.0065074
-0.0075449 0.0016390 0.0051083
Adding node to product side at normalized arclength position: 0.9090909

-Performing force calculation on new product node
 ----------------------------------------------------------------
             Standard Nuclear Orientation (Angstroms)
    I     Atom           X                Y                Z
 ----------------------------------------------------------------
    1      C       0.0718188722    -0.0202165854    -0.1559776008
    2      O       1.8421275050    -0.0186376988     0.1665367580
    3      O      -0.3428344940    -0.0169008323    -1.3041794507
    4      C      -0.7932073368    -0.0196664565     1.0111806549
    5      Si     -2.6403510121     0.0309560177     0.7644184903
    6      H      -3.0944516994    -1.1649542438     0.0130808108
    7      H      -3.0283976359     1.2606916305     0.0307019970
    8      H      -3.2819204589     0.0399079547     2.1039231523
    9      H      -0.3221996092    -0.0546887455     1.9896393373
   10      C       2.7216826212    -0.0100900444    -0.9532607930
   11      H       3.7202592982     0.0983707221    -0.5318311980
   12      H       2.4920271355     0.8220566783    -1.6217139731
   13      H       2.6487591721    -0.9468235319    -1.5116204489
 ----------------------------------------------------------------
 Nuclear Repulsion Energy =   268.0298833195 hartrees
 There are       28 alpha and       27 beta electrons

                       Distance Matrix (Angstroms)
             C (  1)   O (  2)   O (  3)   C (  4)   Si(  5)   H (  6)
   O (  2)  1.799447
   O (  3)  1.220785  2.633831
   C (  4)  1.452766  2.767384  2.358757
   Si(  5)  2.864544  4.522448  3.091920  1.864241
   H (  6)  3.371094  5.070247  3.259540  2.757465  1.483549
   H (  7)  3.359601  5.037574  3.259816  2.756217  1.483634  2.426609
   H (  8)  4.044544  5.478390  4.500735  2.718700  1.485249  2.420425
   H (  9)  2.181768  2.830073  3.294100  1.086488  2.623419  3.581181
   C ( 10)  2.767226  1.423951  3.084551  4.026608  5.630587  6.007907
   H ( 11)  3.669666  2.007184  4.137456  4.771394  6.491700  6.952209
   H ( 12)  2.952154  2.080139  2.973402  4.293413  5.714961  6.150570
   H ( 13)  3.055649  2.080480  3.139653  4.367068  5.840470  5.946156
             H (  7)   H (  8)   H (  9)   C ( 10)   H ( 11)   H ( 12)
   H (  8)  2.419263
   H (  9)  3.590427  2.963437
   C ( 10)  5.970468  6.737368  4.234131
   H ( 11)  6.871085  7.482055  4.766835  1.089276
   H ( 12)  5.779098  6.915967  4.661591  1.091806  1.794469
   H ( 13)  6.283470  7.015608  4.677747  1.092956  1.789003  1.779220

 
 Applying Cartesian multipole field
    Component          Value
    ---------          -----
     (2,0,0)        1.00000E-12
     (0,2,0)        2.00000E-10
     (0,0,2)       -3.00000E-11
 Nucleus-field energy     =    -0.0000000010 hartrees
 Requested basis set is STO-3G
 There are 20 shells and 41 basis functions
 A cutoff of  1.0D-12 yielded    194 shell pairs
 There are       875 function pairs
 Smallest overlap matrix eigenvalue = 2.32E-01
 Guess from superposition of atomic densities
 Warning:  Energy on first SCF cycle will be non-variational
 An unrestricted Hartree-Fock SCF calculation will be
 performed using Pulay DIIS + Geometric Direct Minimization
 SCF converges when RMS gradient is below 1.0E-08
 ---------------------------------------
  Cycle       Energy         DIIS Error
 ---------------------------------------
    1    -548.0203393286      1.45E-01
    2    -549.2009607921      2.56E-02
    3    -549.3804394104      1.61E-02
    4    -549.4484595534      2.53E-03 Done DIIS. Switching to GDM
    5    -549.4571808626      3.23E-02 Normal BFGS step
    6    -549.4613509034      2.24E-02 Normal BFGS step
    7    -549.4695332721      2.48E-02 Normal BFGS step
    8    -549.4716511678      1.98E-02 Normal BFGS step
    9    -549.4733547680      7.17E-03 Normal BFGS step
   10    -549.4735409392      8.47E-03 Normal BFGS step
   11    -549.4739626520      8.99E-03 Normal BFGS step
   12    -549.4750779477      1.34E-02 Dog-leg BFGS step
   13    -549.4742153537      7.49E-02 Line search: overstep
   14    -549.4761036709      1.97E-02 Dog-leg BFGS step
   15    -549.4783965194      1.55E-02 Dog-leg BFGS step
   16    -549.4804315443      7.10E-03 Normal BFGS step
   17    -549.4805278776      4.31E-03 Normal BFGS step
   18    -549.4806979492      1.48E-03 Normal BFGS step
   19    -549.4807163808      5.35E-04 Normal BFGS step
   20    -549.4807208275      1.35E-04 Normal BFGS step
   21    -549.4807212057      8.27E-05 Normal BFGS step
   22    -549.4807213779      3.53E-05 Normal BFGS step
   23    -549.4807213992      2.10E-05 Normal BFGS step
   24    -549.4807214043      6.09E-06 Normal BFGS step
   25    -549.4807214048      4.98E-06 Normal BFGS step
   26    -549.4807214050      3.81E-06 Normal BFGS step
   27    -549.4807214051      2.70E-06 Normal BFGS step
   28    -549.4807214051      1.55E-06 Normal BFGS step
   29    -549.4807214051      1.10E-06 Normal BFGS step
   30    -549.4807214052      8.26E-07 Normal BFGS step
   31    -549.4807214052      7.23E-07 Normal BFGS step
   32    -549.4807214052      7.11E-07 Normal BFGS step
   33    -549.4807214052      5.30E-07 Normal BFGS step
   34    -549.4807214052      2.87E-07 Normal BFGS step
   35    -549.4807214052      1.84E-07 Normal BFGS step
   36    -549.4807214052      5.65E-08 Normal BFGS step
   37    -549.4807214052      3.59E-08 Normal BFGS step
   GDM::WARNING energy changes are now smaller than effective accuracy.
   GDM::        calculation will continue, but THRESH should be increased
   GDM::        or SCF_CONVERGENCE decreased.
   GDM::        effective_thresh =   7.535109064482626E-009
   38    -549.4807214052      1.99E-08 Normal BFGS step
   39    -549.4807214052      6.58E-09 Convergence criterion met
 ---------------------------------------
 <S^2> = 1.3724
 SCF time:  CPU 0.64 s  wall 0.65 s
 SCF   energy in the final basis set = -549.4807214052
 Total energy in the final basis set = -549.4807214052
 Analysis of SCF Wavefunction
 
 --------------------------------------------------------------
 
                    Orbital Energies (a.u.)
 --------------------------------------------------------------
 
 Alpha MOs
 -- Occupied --
-67.997 -20.330 -20.259 -11.087 -11.083 -11.008  -5.976  -4.002
 -4.002  -4.000  -1.383  -1.264  -0.949  -0.861  -0.697  -0.651
 -0.608  -0.577  -0.554  -0.550  -0.519  -0.451  -0.442  -0.440
 -0.424  -0.366  -0.361  -0.342
 -- Virtual --
  0.344   0.362   0.488   0.522   0.551   0.565   0.630   0.692
  0.706   0.714   0.733   0.841   0.993
 
 Beta MOs
 -- Occupied --
-67.998 -20.312 -20.245 -11.120 -11.084 -10.981  -5.978  -4.005
 -4.003  -4.003  -1.322  -1.193  -0.896  -0.845  -0.710  -0.635
 -0.602  -0.571  -0.543  -0.520  -0.459  -0.430  -0.427  -0.423
 -0.414  -0.324  -0.259
 -- Virtual --
  0.244   0.358   0.407   0.507   0.521   0.556   0.590   0.641
  0.705   0.711   0.720   0.744   0.837   0.975
 --------------------------------------------------------------
 
          Ground-State Mulliken Net Atomic Charges

     Atom                 Charge (a.u.)    Spin (a.u.)
  --------------------------------------------------------
      1 C                     0.176975      -1.187398
      2 O                    -0.193713       0.574006
      3 O                    -0.182131       0.694262
      4 C                    -0.236644       1.121655
      5 Si                    0.701376      -0.143069
      6 H                    -0.146978       0.026543
      7 H                    -0.147264       0.025662
      8 H                    -0.154263       0.000723
      9 H                     0.067703      -0.081966
     10 C                    -0.083752      -0.069897
     11 H                     0.076658       0.026968
     12 H                     0.062535       0.007916
     13 H                     0.059499       0.004595
  --------------------------------------------------------
  Sum of atomic charges =    -0.000000
  Sum of spin   charges =     1.000000

 -----------------------------------------------------------------
                    Cartesian Multipole Moments
 -----------------------------------------------------------------
    Charge (ESU x 10^10)
                -0.0000
    Dipole Moment (Debye)
         X      -0.4526      Y       0.0257      Z       0.4036
       Tot       0.6070
    Quadrupole Moments (Debye-Ang)
        XX     -37.6108     XY       0.0652     YY     -39.8390
        XZ      -3.0791     YZ      -0.0501     ZZ     -41.4433
    Octopole Moments (Debye-Ang^2)
       XXX      50.3298    XXY       0.3519    XYY      15.3975
       YYY      -0.2159    XXZ      -7.9915    XYZ       0.1071
       YYZ      -3.9617    XZZ      17.6422    YZZ       0.0305
       ZZZ      -6.5739
    Hexadecapole Moments (Debye-Ang^3)
      XXXX   -1045.1908   XXXY       4.9845   XXYY    -198.4277
      XYYY       4.3212   YYYY     -56.7712   XXXZ     143.5771
      XXYZ      -0.2655   XYYZ      46.3636   YYYZ      -0.7934
      XXZZ    -231.1681   XYZZ       1.5930   YYZZ     -46.5556
      XZZZ     153.5173   YZZZ      -1.6541   ZZZZ    -245.5171
 -----------------------------------------------------------------
 Calculating analytic gradient of the SCF energy
 Gradient of Coulomb and Exchange Energy
            1           2           3           4           5           6
    1  -4.1704976  -6.2906299   5.0179073   0.1534170  11.7000091   2.2960359
    2   0.0861569   0.0713338   0.0429263   0.1209633  -0.2372773   4.1857660
    3  -2.8500398  -8.4637112  17.3807755  -7.3061918  -2.3795251   2.3921812
            7           8           9          10          11          12
    1   2.0706794   2.5800392  -2.0502841  -6.9387403  -4.1006445   0.1536931
    2  -4.3378045  -0.0405771   0.1775666  -0.0356812  -0.3772244  -3.1492444
    3   2.3303058  -4.5301493  -4.7742643   4.0682654  -1.1861083   2.8892182
           13
    1  -0.4209845
    2   3.4930960
    3   2.4292438
 Gradient of SCF Energy
            1           2           3           4           5           6
    1  -0.1028425   0.0820541   0.0240926  -0.0090104   0.0296271  -0.0104934
    2   0.0006957  -0.0003780  -0.0007243   0.0002877  -0.0008109  -0.0257582
    3  -0.1000204  -0.0282155   0.0994956   0.0043493  -0.0052046  -0.0155653
            7           8           9          10          11          12
    1  -0.0091264  -0.0130190   0.0015782   0.0237950  -0.0038880  -0.0068786
    2   0.0266042   0.0002420  -0.0005898   0.0026596  -0.0008964  -0.0014117
    3  -0.0151359   0.0301206   0.0030036   0.0149385   0.0028666   0.0047480
           13
    1  -0.0058885
    2   0.0000800
    3   0.0046194
 Max gradient component =       1.028E-01
 RMS gradient           =       3.346E-02
 Gradient time:  CPU 0.20 s  wall 0.20 s
the nuclear gradient is: 
-0.1943431 0.0013147 -0.1890101
0.1550589 -0.0007143 -0.0533193
0.0455281 -0.0013687 0.1880185
-0.0170271 0.0005437 0.0082188
0.0559868 -0.0015324 -0.0098352
-0.0198295 -0.0486758 -0.0294141
-0.0172463 0.0502744 -0.0286025
-0.0246022 0.0004573 0.0569195
0.0029823 -0.0011145 0.0056760
0.0449657 0.0050260 0.0282295
-0.0073473 -0.0016940 0.0054171
-0.0129987 -0.0026676 0.0089725
-0.0111276 0.0001512 0.0087293

-printing perpgradfile.txt, Vfile.txt and string(iter).xyz
The objective function, F, in (hartrees/Angstrom) is 0.6772349
-Taking optimization step

STARTING ITERATION 2
-reparemeterizing with LST interpolation
The arclength distribution of nodes is: 
0.00000  0.09108  0.90753  1.00000  
Calculating gradient for node 2
 ----------------------------------------------------------------
             Standard Nuclear Orientation (Angstroms)
    I     Atom           X                Y                Z
 ----------------------------------------------------------------
    1      C      -1.5230785007    -0.0211982881    -0.1682134387
    2      O       4.3459808976    -0.0209725932    -0.1630456070
    3      O      -2.1963515174    -0.0205905177    -1.2722294174
    4      C      -2.1369678218    -0.0155007398     1.1153094846
    5      Si     -4.0065836594     0.0381072984     1.2706761048
    6      H      -4.5941716735    -1.1494543522     0.6363689557
    7      H      -4.5239988725     1.2552442626     0.6312932678
    8      H      -4.3394873192     0.0518294574     2.6971943228
    9      H      -1.4729771868    -0.0479391885     1.9726548403
   10      C       4.9816381038    -0.0182426146    -1.4465597469
   11      H       6.0492283340     0.0909287867    -1.2464369540
   12      H       4.6196644698     0.8134015085    -2.0535910405
   13      H       4.7941838120    -0.9555833004    -1.9728506197
 ----------------------------------------------------------------
 Nuclear Repulsion Energy =   214.4906972719 hartrees
 There are       28 alpha and       27 beta electrons

                       Distance Matrix (Angstroms)
             C (  1)   O (  2)   O (  3)   C (  4)   Si(  5)   H (  6)
   O (  2)  5.869062
   O (  3)  1.293116  6.635692
   C (  4)  1.422787  6.607787  2.388283
   Si(  5)  2.870839  8.474927  3.121979  1.876826
   H (  6)  3.369262  9.046483  3.265980  2.748288  1.468982
   H (  7)  3.357684  8.996457  3.266358  2.747177  1.468997  2.405728
   H (  8)  4.018464  9.144596  4.511607  2.712561  1.464912  2.398947
   H (  9)  2.141621  6.198566  3.324649  1.084886  2.630464  3.569433
   C ( 10)  6.629141  1.432297  7.180107  7.565562  9.390137  9.864804
   H ( 11)  7.649508  2.021710  8.246374  8.520738 10.366195 10.879590
   H ( 12)  6.479544  2.084525  6.911161  7.508734  9.277068  9.797115
   H ( 13)  6.636083  2.085612  7.087501  7.646002  9.431935  9.746119
             H (  7)   H (  8)   H (  9)   C ( 10)   H ( 11)   H ( 12)
   H (  8)  2.397957
   H (  9)  3.578585  2.958343
   C ( 10)  9.813072 10.200931  7.304380
   H ( 11) 10.801603 11.112118  8.183240  1.091658
   H ( 12)  9.539938 10.169383  7.353424  1.091395  1.793632
   H ( 13)  9.924608 10.307674  7.461108  1.091205  1.788296  1.779405

 
 Applying Cartesian multipole field
    Component          Value
    ---------          -----
     (2,0,0)        1.00000E-12
     (0,2,0)        2.00000E-10
     (0,0,2)       -3.00000E-11
 Nucleus-field energy     =    -0.0000000024 hartrees
 Requested basis set is STO-3G
 There are 20 shells and 41 basis functions
 A cutoff of  1.0D-12 yielded    130 shell pairs
 There are       616 function pairs
 Smallest overlap matrix eigenvalue = 2.33E-01
 Guess from superposition of atomic densities
 Warning:  Energy on first SCF cycle will be non-variational
 An unrestricted Hartree-Fock SCF calculation will be
 performed using Pulay DIIS + Geometric Direct Minimization
 SCF converges when RMS gradient is below 1.0E-08
 ---------------------------------------
  Cycle       Energy         DIIS Error
 ---------------------------------------
    1    -547.7602323118      1.37E-01
    2    -548.6516165754      3.11E-02
    3    -544.0506784158      6.39E-02
    4    -548.8085936988      2.23E-02
    5    -548.9093746837      1.46E-02
    6    -548.9580736819      9.93E-03 Done DIIS. Switching to GDM
    7    -547.0292509660      8.78E-01 Descent step
    8    -547.5357756897      1.84E-01 Descent step
    9    -547.7233441574      1.06E-01 Descent step
   10    -547.8229753791      7.03E-02 Dog-leg BFGS step
   11    -547.8627114834      3.74E-02 Normal BFGS step
   12    -547.8706125128      2.80E-02 Normal BFGS step
   13    -547.8742000555      1.91E-02 Normal BFGS step
   14    -547.8759025491      1.55E-02 Normal BFGS step
   15    -547.8771868048      1.35E-02 Normal BFGS step
   16    -547.8795479856      2.33E-02 Line search: understep
   17    -547.8520548559      1.16E-01 Line search: overstep
   GDM::BFGS:   rebuilding Hinv to be positive definite
   18    -547.8822883858      6.78E-02 Descent step
   GDM::BFGS:   rebuilding Hinv to be positive definite
   19    -547.9006063932      1.67E-01 Dog-leg BFGS step
   20    -547.9545549792      1.39E-01 Descent step
   GDM::BFGS:   rebuilding Hinv to be positive definite
   21    -548.0906621165      3.60E-01 Descent step
   22    -548.2803959620      5.11E-01 Descent step
   GDM::BFGS:   rebuilding Hinv to be positive definite
   23    -548.5650195150      1.59E+00 Descent step
   24    -549.1152798281      2.49E-01 Descent step
   25    -549.2826741421      1.82E-01 Descent step
   26    -549.3709769656      6.05E-02 Dog-leg BFGS step
   27    -549.3566751840      3.74E-02 Line search: overstep
   28    -549.3750287912      6.02E-02 Descent step
   29    -549.3870270042      4.26E-02 Normal BFGS step
   30    -549.3934760711      6.34E-02 Dog-leg BFGS step
   31    -549.4068619988      5.64E-02 Dog-leg BFGS step
   32    -549.4023473074      8.10E-02 Line search: overstep
   33    -549.4149998794      4.12E-02 Dog-leg BFGS step
   34    -549.4218011210      3.17E-02 Dog-leg BFGS step
   35    -549.4250959318      2.46E-02 Dog-leg BFGS step
   36    -549.4253921314      2.30E-02 Dog-leg BFGS step
   37    -549.4303472984      3.51E-02 Dog-leg BFGS step
   38    -549.4351443253      3.41E-02 Dog-leg BFGS step
   39    -549.4396755947      2.79E-02 Dog-leg BFGS step
   40    -549.4435010197      1.15E-02 Normal BFGS step
   41    -549.4435526496      8.05E-03 Normal BFGS step
   42    -549.4439228296      3.30E-03 Normal BFGS step
   43    -549.4439791806      2.15E-03 Normal BFGS step
   44    -549.4440054639      1.14E-03 Normal BFGS step
   45    -549.4440156699      1.31E-03 Normal BFGS step
   46    -549.4440225196      1.41E-03 Normal BFGS step
   47    -549.4440332630      1.63E-03 Normal BFGS step
   48    -549.4440632896      2.29E-03 Normal BFGS step
   49    -549.4442144223      7.33E-03 Dog-leg BFGS step
   50    -549.4450214206      1.71E-02 Dog-leg BFGS step
   51    -549.4479642881      2.10E-02 Dog-leg BFGS step
   52    -549.4536849438      1.97E-02 Dog-leg BFGS step
   53    -549.4514450677      5.27E-02 Line search: overstep
   54    -549.4558346126      1.37E-02 Dog-leg BFGS step
   55    -549.4577120078      1.14E-02 Dog-leg BFGS step
   56    -549.4589433052      1.28E-02 Dog-leg BFGS step
   57    -549.4578539181      9.60E-03 Line search: overstep
   58    -549.4590814938      1.06E-02 Dog-leg BFGS step
   59    -549.4595494308      7.39E-03 Dog-leg BFGS step
   60    -549.4599950417      7.42E-03 Dog-leg BFGS step
   61    -549.4603871243      6.65E-03 Dog-leg BFGS step
   62    -549.4610739113      5.83E-03 Dog-leg BFGS step
   63    -549.4616041595      4.46E-03 Dog-leg BFGS step
   64    -549.4620487156      3.68E-03 Dog-leg BFGS step
   65    -549.4623593434      2.10E-03 Dog-leg BFGS step
   66    -549.4625117002      1.02E-03 Normal BFGS step
   67    -549.4625408708      5.24E-04 Normal BFGS step
   68    -549.4625437474      2.33E-04 Normal BFGS step
   69    -549.4625440944      1.57E-04 Normal BFGS step
   70    -549.4625442295      1.56E-04 Normal BFGS step
   71    -549.4625442797      1.57E-04 Normal BFGS step
   72    -549.4625444098      1.61E-04 Normal BFGS step
   73    -549.4625446511      1.68E-04 Normal BFGS step
   74    -549.4625453145      2.49E-04 Normal BFGS step
   75    -549.4625472952      4.79E-04 Normal BFGS step
   76    -549.4625569296      1.35E-03 Dog-leg BFGS step
   GDM::BFGS:   rebuilding Hinv to be positive definite
   77    -549.4626259611      3.91E-03 Dog-leg BFGS step
   78    -549.4628611462      5.20E-03 Dog-leg BFGS step
   79    -549.4633799506      4.47E-03 Dog-leg BFGS step
   80    -549.4624066450      1.37E-02 Line search: overstep
   81    -549.4635947643      1.63E-03 Dog-leg BFGS step
   82    -549.4637718647      1.62E-03 Dog-leg BFGS step
   83    -549.4639502587      2.82E-03 Dog-leg BFGS step
   84    -549.4642149241      3.09E-03 Dog-leg BFGS step
   85    -549.4643457930      1.73E-03 Normal BFGS step
   86    -549.4643672636      9.42E-04 Normal BFGS step
   87    -549.4643739315      3.67E-04 Normal BFGS step
   88    -549.4643750072      1.53E-04 Normal BFGS step
   89    -549.4643752190      4.41E-05 Normal BFGS step
   90    -549.4643752486      2.38E-05 Normal BFGS step
   91    -549.4643752636      1.77E-05 Normal BFGS step
   92    -549.4643752666      8.95E-06 Normal BFGS step
   93    -549.4643752670      1.73E-06 Normal BFGS step
   94    -549.4643752671      5.66E-07 Normal BFGS step
   95    -549.4643752671      2.88E-07 Normal BFGS step
   96    -549.4643752671      1.32E-07 Normal BFGS step
   97    -549.4643752671      4.26E-08 Normal BFGS step
   GDM::WARNING energy changes are now smaller than effective accuracy.
   GDM::        calculation will continue, but THRESH should be increased
   GDM::        or SCF_CONVERGENCE decreased.
   GDM::        effective_thresh =   5.376141380599581E-009
   98    -549.4643752671      1.90E-08 Normal BFGS step
   GDM::WARNING energy changes are now smaller than effective accuracy.
   GDM::        calculation will continue, but THRESH should be increased
   GDM::        or SCF_CONVERGENCE decreased.
   GDM::        effective_thresh =   5.376141380599581E-009
   99    -549.4643752671      1.19E-08 Normal BFGS step
[...]
 Requested basis set is STO-3G
 There are 20 shells and 41 basis functions
 A cutoff of  1.0D-12 yielded    187 shell pairs
 There are       829 function pairs
 Smallest overlap matrix eigenvalue = 2.35E-01
 Guess from superposition of atomic densities
 Warning:  Energy on first SCF cycle will be non-variational
 An unrestricted Hartree-Fock SCF calculation will be
 performed using Pulay DIIS + Geometric Direct Minimization
 SCF converges when RMS gradient is below 1.0E-08
 ---------------------------------------
  Cycle       Energy         DIIS Error
 ---------------------------------------
    1    -547.8328128410      1.39E-01
    2    -549.0364082746      2.79E-02
    3    -549.1159462466      2.64E-02
    4    -549.3506689678      4.68E-03 Done DIIS. Switching to GDM
    5    -549.3675379819      5.58E-02 Normal BFGS step
    6    -549.3765117331      3.96E-02 Normal BFGS step
    7    -549.3894123569      3.44E-02 Normal BFGS step
    8    -549.3953492104      3.64E-02 Normal BFGS step
    9    -549.4019906435      4.75E-02 Normal BFGS step
   10    -549.4105263122      6.50E-02 Dog-leg BFGS step
   11    -549.4342313751      4.95E-02 Dog-leg BFGS step
   12    -549.4474576410      4.02E-02 Normal BFGS step
   13    -549.4500873913      3.34E-02 Normal BFGS step
   14    -549.4515246068      1.69E-02 Normal BFGS step
   15    -549.4523792427      4.84E-03 Normal BFGS step
   16    -549.4524777875      3.26E-03 Normal BFGS step
   17    -549.4525229492      1.16E-03 Normal BFGS step
   18    -549.4525313085      5.18E-04 Normal BFGS step
   19    -549.4525329879      1.78E-04 Normal BFGS step
   20    -549.4525334262      1.63E-04 Normal BFGS step
   21    -549.4525336655      1.51E-04 Normal BFGS step
   22    -549.4525338849      1.27E-04 Normal BFGS step
   23    -549.4525340763      8.31E-05 Normal BFGS step
   24    -549.4525342142      6.52E-05 Normal BFGS step
   25    -549.4525342807      4.89E-05 Normal BFGS step
   26    -549.4525343030      2.17E-05 Normal BFGS step
   27    -549.4525343094      1.93E-05 Normal BFGS step
   28    -549.4525343116      1.71E-05 Normal BFGS step
   29    -549.4525343128      1.47E-05 Normal BFGS step
   30    -549.4525343140      1.14E-05 Normal BFGS step
   31    -549.4525343152      6.93E-06 Normal BFGS step
   32    -549.4525343163      5.54E-06 Normal BFGS step
   33    -549.4525343168      2.66E-06 Normal BFGS step
   34    -549.4525343169      1.25E-06 Normal BFGS step
   35    -549.4525343169      5.66E-07 Normal BFGS step
   36    -549.4525343169      2.81E-07 Normal BFGS step
   37    -549.4525343169      1.40E-07 Normal BFGS step
   38    -549.4525343169      8.21E-08 Normal BFGS step
   39    -549.4525343169      4.26E-08 Normal BFGS step
   GDM::WARNING energy changes are now smaller than effective accuracy.
   GDM::        calculation will continue, but THRESH should be increased
   GDM::        or SCF_CONVERGENCE decreased.
   GDM::        effective_thresh =   3.015075774578978E-009
   40    -549.4525343169      2.48E-08 Normal BFGS step
   GDM::WARNING energy changes are now smaller than effective accuracy.
   GDM::        calculation will continue, but THRESH should be increased
   GDM::        or SCF_CONVERGENCE decreased.
   GDM::        effective_thresh =   3.015075774578978E-009
   41    -549.4525343169      1.23E-08 Normal BFGS step
   42    -549.4525343169      8.53E-09 Convergence criterion met
 ---------------------------------------
 <S^2> = 1.8285
 SCF time:  CPU 0.69 s  wall 0.69 s
 SCF   energy in the final basis set = -549.4525343169
 Total energy in the final basis set = -549.4525343169
 Analysis of SCF Wavefunction
 
 --------------------------------------------------------------
 
                    Orbital Energies (a.u.)
 --------------------------------------------------------------
 
 Alpha MOs
 -- Occupied --
-67.990 -20.329 -20.261 -11.084 -11.054 -11.007  -5.972  -3.998
 -3.998  -3.997  -1.367  -1.156  -0.954  -0.852  -0.717  -0.658
 -0.595  -0.566  -0.549  -0.540  -0.518  -0.457  -0.449  -0.443
 -0.433  -0.350  -0.337  -0.263
 -- Virtual --
  0.337   0.354   0.490   0.550   0.575   0.588   0.615   0.683
  0.699   0.703   0.729   0.843   0.909
 
 Beta MOs
 -- Occupied --
-67.991 -20.302 -20.286 -11.080 -11.050 -10.978  -5.973  -3.999
 -3.999  -3.999  -1.283  -1.255  -0.873  -0.857  -0.702  -0.623
 -0.596  -0.571  -0.508  -0.496  -0.449  -0.445  -0.433  -0.414
 -0.395  -0.364  -0.363
 -- Virtual --
  0.245   0.278   0.423   0.531   0.559   0.578   0.589   0.613
  0.684   0.703   0.715   0.727   0.881   0.967
 --------------------------------------------------------------
 
          Ground-State Mulliken Net Atomic Charges

     Atom                 Charge (a.u.)    Spin (a.u.)
  --------------------------------------------------------
      1 C                     0.103738      -0.034049
      2 O                    -0.117002      -0.946216
      3 O                    -0.158442       0.913844
      4 C                    -0.234682       1.109527
      5 Si                    0.709177      -0.072746
      6 H                    -0.153281       0.018943
      7 H                    -0.153438       0.018213
      8 H                    -0.158016       0.006091
      9 H                     0.062116      -0.078314
     10 C                    -0.103430       0.132644
     11 H                     0.074017      -0.043247
     12 H                     0.066207      -0.014916
     13 H                     0.063036      -0.009772
  --------------------------------------------------------
  Sum of atomic charges =    -0.000000
  Sum of spin   charges =     1.000000

 -----------------------------------------------------------------
                    Cartesian Multipole Moments
 -----------------------------------------------------------------
    Charge (ESU x 10^10)
                 0.0000
    Dipole Moment (Debye)
         X       0.0350      Y       0.0231      Z       0.4778
       Tot       0.4796
    Quadrupole Moments (Debye-Ang)
        XX     -35.7050     XY       0.0727     YY     -39.8831
        XZ      -3.4698     YZ      -0.0516     ZZ     -40.8352
    Octopole Moments (Debye-Ang^2)
       XXX      62.6903    XXY       0.3317    XYY      17.1650
       YYY      -0.1738    XXZ      -8.8298    XYZ       0.0719
       YYZ      -4.2921    XZZ      20.2411    YZZ       0.0658
       ZZZ      -7.9989
    Hexadecapole Moments (Debye-Ang^3)
      XXXX   -1174.0890   XXXY       5.3387   XXYY    -223.6796
      XYYY       4.7457   YYYY     -55.4966   XXXZ     157.5021
      XXYZ      -0.3539   XYYZ      52.9398   YYYZ      -0.9698
      XXZZ    -254.4145   XYZZ       1.8133   YYZZ     -48.1140
      XZZZ     172.6515   YZZZ      -1.8488   ZZZZ    -257.9383
 -----------------------------------------------------------------
 Calculating analytic gradient of the SCF energy
 Gradient of Coulomb and Exchange Energy
            1           2           3           4           5           6
    1  -7.4522079  -2.8632397   4.7514057  -0.2310745  11.1077373   2.3809951
    2   0.0956284   0.0428489   0.0182068   0.1364615  -0.2223968   3.9924976
    3  -3.3200320  -7.5677644  16.9247606  -6.5641141  -2.7420610   2.2345804
            7           8           9          10          11          12
    1   2.1629117   2.5227155  -1.8712087  -5.4969502  -4.0543535  -0.2154733
    2  -4.1423156  -0.0443678   0.1572838   0.0554120  -0.3657530  -3.0313136
    3   2.1862422  -4.3896434  -4.6994695   3.4567213  -0.8403410   2.8785974
           13
    1  -0.7412574
    2   3.3078078
    3   2.4425235
 Gradient of SCF Energy
            1           2           3           4           5           6
    1   0.0087665  -0.0060617  -0.0093915   0.0025473  -0.0037493  -0.0031227
    2   0.0003221  -0.0002838  -0.0004086  -0.0000943   0.0001312  -0.0025581
    3   0.0009859  -0.0032125   0.0074422  -0.0008150  -0.0009408  -0.0012708
            7           8           9          10          11          12
    1  -0.0029834  -0.0036396  -0.0026078   0.0037509   0.0080195   0.0039426
    2   0.0027984   0.0001452  -0.0004014   0.0002134  -0.0000534  -0.0003100
    3  -0.0011917   0.0025625   0.0010763   0.0006679  -0.0045867  -0.0003153
           13
    1   0.0045291
    2   0.0004994
    3  -0.0004020
 Max gradient component =       9.391E-03
 RMS gradient           =       3.550E-03
 Gradient time:  CPU 0.20 s  wall 0.20 s
the nuclear gradient is: 
0.0165662 0.0006087 0.0018631
-0.0114550 -0.0005363 -0.0060707
-0.0177472 -0.0007721 0.0140637
0.0048138 -0.0001783 -0.0015401
-0.0070851 0.0002479 -0.0017779
-0.0059010 -0.0048341 -0.0024015
-0.0056377 0.0052882 -0.0022519
-0.0068778 0.0002743 0.0048423
-0.0049281 -0.0007586 0.0020339
0.0070881 0.0004033 0.0012622
0.0151546 -0.0001010 -0.0086676
0.0074504 -0.0005858 -0.0005958
0.0085588 0.0009437 -0.0007596
Calculating gradient for node 11
 ----------------------------------------------------------------
             Standard Nuclear Orientation (Angstroms)
    I     Atom           X                Y                Z
 ----------------------------------------------------------------
    1      C       0.2172274839    -0.0189695194    -0.1212646307
    2      O       1.6784996478    -0.0196311856     0.1420298018
    3      O      -0.3120568978    -0.0149470061    -1.3353601383
    4      C      -0.7600103031    -0.0200517075     0.9778771003
    5      Si     -2.6561606874     0.0300458532     0.7812641634
    6      H      -3.1373742728    -1.1125029982     0.0710750342
    7      H      -3.0737488759     1.2066688848     0.0867277637
    8      H      -3.2900226734     0.0394183493     2.0689531576
    9      H      -0.3752375485    -0.0513663890     1.9907942688
   10      C       2.6864020062    -0.0127868547    -0.9457220294
   11      H       3.7169681496     0.0948120866    -0.5381922185
   12      H       2.5748905958     0.8206304003    -1.6469081017
   13      H       2.7220458352    -0.9413190808    -1.5300987808
 ----------------------------------------------------------------
 Nuclear Repulsion Energy =   269.5596749771 hartrees
 There are       28 alpha and       27 beta electrons

                       Distance Matrix (Angstroms)
             C (  1)   O (  2)   O (  3)   C (  4)   Si(  5)   H (  6)
   O (  2)  1.484803
   O (  3)  1.324457  2.478915
   C (  4)  1.470751  2.577784  2.356216
   Si(  5)  3.012195  4.381823  3.158630  1.906975
   H (  6)  3.533577  4.938830  3.341423  2.769043  1.428759
   H (  7)  3.517951  4.908231  3.337907  2.766293  1.428707  2.320097
   H (  8)  4.135368  5.329422  4.523338  2.755893  1.435274  2.311221
   H (  9)  2.193823  2.763471  3.326954  1.083989  2.583060  3.527142
   C ( 10)  2.603189  1.482942  3.023670  3.946903  5.614917  6.013287
   H ( 11)  3.526324  2.152011  4.108597  4.728107  6.508604  6.986475
   H ( 12)  2.931056  2.170220  3.021542  4.326408  5.821077  6.270442
   H ( 13)  3.018221  2.175893  3.178344  4.389008  5.933890  6.076666
             H (  7)   H (  8)   H (  9)   C ( 10)   H ( 11)   H ( 12)
   H (  8)  2.310512
   H (  9)  3.534131  2.917246
   C ( 10)  5.977655  6.693926  4.242435
   H ( 11)  6.909456  7.476510  4.812825  1.113429
   H ( 12)  5.921288  6.986782  4.764086  1.094843  1.749401
   H ( 13)  6.388992  7.075308  4.773036  1.097697  1.745657  1.771938

 
 Applying Cartesian multipole field
    Component          Value
    ---------          -----
     (2,0,0)        1.00000E-12
     (0,2,0)        2.00000E-10
     (0,0,2)       -3.00000E-11
 Nucleus-field energy     =    -0.0000000012 hartrees
 Requested basis set is STO-3G
 There are 20 shells and 41 basis functions
 A cutoff of  1.0D-12 yielded    194 shell pairs
 There are       875 function pairs
 Smallest overlap matrix eigenvalue = 2.39E-01
 Guess from superposition of atomic densities
 Warning:  Energy on first SCF cycle will be non-variational
 An unrestricted Hartree-Fock SCF calculation will be
 performed using Pulay DIIS + Geometric Direct Minimization
 SCF converges when RMS gradient is below 1.0E-08
 ---------------------------------------
  Cycle       Energy         DIIS Error
 ---------------------------------------
    1    -547.9309872640      1.39E-01
    2    -549.2490771287      2.53E-02
    3    -549.3899377563      2.07E-02
    4    -549.4960782125      2.67E-03 Done DIIS. Switching to GDM
    5    -549.5071095376      4.01E-02 Normal BFGS step
    6    -549.5151555324      4.99E-02 Dog-leg BFGS step
    7    -549.5368395335      2.51E-02 Normal BFGS step
    8    -549.5362754415      1.84E-02 Line search: overstep
    9    -549.5396741318      1.82E-02 Normal BFGS step
   10    -549.5408097868      1.01E-02 Normal BFGS step
   11    -549.5412860066      2.65E-03 Normal BFGS step
   12    -549.5413214383      1.32E-03 Normal BFGS step
   13    -549.5413364146      3.55E-04 Normal BFGS step
   14    -549.5413373610      1.75E-04 Normal BFGS step
   15    -549.5413377997      6.95E-05 Normal BFGS step
   16    -549.5413378660      4.07E-05 Normal BFGS step
   17    -549.5413379012      3.34E-05 Normal BFGS step
   18    -549.5413379138      2.86E-05 Normal BFGS step
   19    -549.5413379208      2.31E-05 Normal BFGS step
   20    -549.5413379253      1.90E-05 Normal BFGS step
   21    -549.5413379298      1.28E-05 Normal BFGS step
   22    -549.5413379330      9.75E-06 Normal BFGS step
   23    -549.5413379346      4.50E-06 Normal BFGS step
   24    -549.5413379350      1.89E-06 Normal BFGS step
   25    -549.5413379351      7.01E-07 Normal BFGS step
   26    -549.5413379351      4.09E-07 Normal BFGS step
   27    -549.5413379351      2.28E-07 Normal BFGS step
   28    -549.5413379351      8.40E-08 Normal BFGS step
   GDM::WARNING energy changes are now smaller than effective accuracy.
   GDM::        calculation will continue, but THRESH should be increased
   GDM::        or SCF_CONVERGENCE decreased.
   GDM::        effective_thresh =   1.685807697065123E-009
   29    -549.5413379351      3.18E-08 Normal BFGS step
   30    -549.5413379351      2.34E-08 Normal BFGS step
   31    -549.5413379351      9.74E-09 Convergence criterion met
 ---------------------------------------
 <S^2> = 1.1804
 SCF time:  CPU 0.50 s  wall 0.50 s
 SCF   energy in the final basis set = -549.5413379351
 Total energy in the final basis set = -549.5413379351
 Analysis of SCF Wavefunction
 
 --------------------------------------------------------------
 
                    Orbital Energies (a.u.)
 --------------------------------------------------------------
 
 Alpha MOs
 -- Occupied --
-67.991 -20.304 -20.272 -11.104 -11.095 -11.002  -5.972  -3.998
 -3.998  -3.996  -1.343  -1.250  -0.944  -0.881  -0.709  -0.654
 -0.598  -0.573  -0.547  -0.538  -0.524  -0.455  -0.438  -0.427
 -0.410  -0.378  -0.368  -0.329
 -- Virtual --
  0.343   0.415   0.508   0.553   0.584   0.587   0.616   0.670
  0.690   0.696   0.724   0.823   0.891
 
 Beta MOs
 -- Occupied --
-67.992 -20.280 -20.273 -11.127 -11.096 -10.974  -5.974  -4.000
 -3.999  -3.999  -1.291  -1.207  -0.909  -0.848  -0.715  -0.641
 -0.590  -0.577  -0.538  -0.509  -0.467  -0.438  -0.434  -0.403
 -0.389  -0.338  -0.308
 -- Virtual --
  0.273   0.404   0.413   0.527   0.549   0.586   0.608   0.609
  0.674   0.690   0.713   0.724   0.832   0.900
 --------------------------------------------------------------
 
          Ground-State Mulliken Net Atomic Charges

     Atom                 Charge (a.u.)    Spin (a.u.)
  --------------------------------------------------------
      1 C                     0.193510      -0.868461
      2 O                    -0.241871       0.005285
      3 O                    -0.162210       0.896886
      4 C                    -0.228091       1.127013
      5 Si                    0.709344      -0.121209
      6 H                    -0.154241       0.019738
      7 H                    -0.154489       0.019199
      8 H                    -0.156961       0.003065
      9 H                     0.055484      -0.079863
     10 C                    -0.063948      -0.001921
     11 H                     0.073653       0.002374
     12 H                     0.065560      -0.000882
     13 H                     0.064261      -0.001225
  --------------------------------------------------------
  Sum of atomic charges =    -0.000000
  Sum of spin   charges =     1.000000

 -----------------------------------------------------------------
                    Cartesian Multipole Moments
 -----------------------------------------------------------------
    Charge (ESU x 10^10)
                -0.0000
    Dipole Moment (Debye)
         X       0.0620      Y       0.0141      Z       0.2050
       Tot       0.2147
    Quadrupole Moments (Debye-Ang)
        XX     -37.2286     XY       0.0384     YY     -39.8541
        XZ      -4.0356     YZ      -0.0325     ZZ     -41.1617
    Octopole Moments (Debye-Ang^2)
       XXX      54.9318    XXY       0.2047    XYY      15.8851
       YYY      -0.1715    XXZ     -10.2489    XYZ       0.1299
       YYZ      -4.0938    XZZ      17.9905    YZZ       0.0570
       ZZZ      -7.2763
    Hexadecapole Moments (Debye-Ang^3)
      XXXX   -1031.6817   XXXY       4.6401   XXYY    -195.9810
      XYYY       4.4004   YYYY     -55.4180   XXXZ     137.0946
      XXYZ      -0.1725   XYYZ      46.9814   YYYZ      -0.7881
      XXZZ    -224.7181   XYZZ       1.6217   YYZZ     -46.1547
      XZZZ     154.2344   YZZZ      -1.6061   ZZZZ    -245.7983
 -----------------------------------------------------------------
 Calculating analytic gradient of the SCF energy
 Gradient of Coulomb and Exchange Energy
            1           2           3           4           5           6
    1  -2.8854681  -8.5747339   5.7772957   0.8661970  11.3296250   2.4391313
    2   0.0741001   0.0649617   0.0253326   0.1365556  -0.2105230   3.9836913
    3  -1.8012815  -8.6472415  16.1976370  -6.2290600  -2.7425449   2.2462696
            7           8           9          10          11          12
    1   2.2227201   2.7231277  -1.5538773  -6.2844310  -4.3320832  -0.5982527
    2  -4.1389002  -0.0458092   0.1583926   0.0420903  -0.3557134  -3.0983536
    3   2.1917023  -4.3351687  -4.8779164   3.1474844  -0.7246004   3.0158160
           13
    1  -1.1292506
    2   3.3641751
    3   2.5589040
 Gradient of SCF Energy
            1           2           3           4           5           6
    1  -0.0131218   0.0192904  -0.0221989  -0.0114984  -0.0132767  -0.0039304
    2  -0.0002579   0.0001695  -0.0003651  -0.0000777   0.0003204  -0.0019671
    3   0.0026039   0.0019949   0.0044332   0.0032791   0.0021081  -0.0008653
            7           8           9          10          11          12
    1  -0.0037697  -0.0082103  -0.0043114   0.0181624   0.0240336   0.0084533
    2   0.0022231   0.0002563  -0.0004226  -0.0000147   0.0004874   0.0003370
    3  -0.0007673   0.0043434   0.0004283  -0.0025525  -0.0112945  -0.0010073
           13
    1   0.0103778
    2  -0.0006884
    3  -0.0027040
 Max gradient component =       2.403E-02
 RMS gradient           =       8.422E-03
 Gradient time:  CPU 0.20 s  wall 0.20 s
the nuclear gradient is: 
-0.0247965 -0.0004874 0.0049207
0.0364533 0.0003204 0.0037699
-0.0419496 -0.0006900 0.0083775
-0.0217287 -0.0001469 0.0061966
-0.0250892 0.0006055 0.0039837
-0.0074274 -0.0037173 -0.0016352
-0.0071236 0.0042010 -0.0014500
-0.0155150 0.0004844 0.0082077
-0.0081474 -0.0007986 0.0008093
0.0343218 -0.0000277 -0.0048236
0.0454168 0.0009210 -0.0213435
0.0159744 0.0006367 -0.0019035
0.0196111 -0.0013009 -0.0051097
-Projecting tangential components out of gradient vectors
The magnitudes of the perpendicular gradient are: 
0.15  0.02  0.02  0.02  0.02  0.02  0.02  0.02  0.03  0.04  0.05  0.30  

-printing perpgradfile.txt, Vfile.txt and string(iter).xyz
The objective function, F, in (hartrees/Angstrom) is 0.25


A miracle has come to pass!  The string has converged!
