                  Welcome to Q-Chem
     A Quantum Leap Into The Future Of Chemistry


 Q-Chem 4.2, Q-Chem, Inc., Pleasanton, CA (2014).

 Y. Shao,  Z. Gan,  E. Epifanovsky,  A. T. B. Gilbert,  M. Wormit,  
 J. Kussmann,  A. W. Lange,  A. Behn,  J. Deng,  X. Feng,  D. Ghosh,  
 M. Goldey,  P. R. Horn,  L. D. Jacobson,  I. Kaliman,  R. Z. Khaliullin,  
 T. Kus,  A. Landau,  J. Liu,  E. I. Proynov,  Y. M. Rhee,  R. M. Richard,  
 M. A. Rohrdanz,  R. P. Steele,  E. J. Sundstrom,  H. L. Woodcock III,  
 P. M. Zimmerman,  D. Zuev,  B. Albrecht,  E. Alguire,  B. Austin,  
 G. J. O. Beran,  Y. A. Bernard,  E. Berquist,  K. Brandhorst,  
 K. B. Bravaya,  S. T. Brown,  D. Casanova,  C.-M. Chang,  Y. Chen,  
 S. H. Chien,  K. D. Closser,  D. L. Crittenden,  M. Diedenhofen,  
 R. A. DiStasio Jr.,  H. Do,  A. D. Dutoi,  R. G. Edgar,  S. Fatehi,  
 L. Fusti-Molnar,  A. Ghysels,  A. Golubeva-Zadorozhnaya,  J. Gomes,  
 M. W. D. Hanson-Heine,  P. H. P. Harbach,  A. W. Hauser,  E. G. Hohenstein,  
 Z. C. Holden,  T.-C. Jagau,  H. Ji,  B. Kaduk,  K. Khistyaev,  Jaehoon Kim,  
 Jihan Kim,  R. A. King,  P. Klunzinger,  D. Kosenkov,  T. Kowalczyk,  
 C. M. Krauter,  K. U. Lao,  A. Laurent,  K. V. Lawler,  S. V. Levchenko,  
 C. Y. Lin,  F. Liu,  E. Livshits,  R. C. Lochan,  A. Luenser,  P. Manohar,  
 S. F. Manzer,  S.-P. Mao,  N. Mardirossian,  A. V. Marenich,  S. A. Maurer,  
 N. J. Mayhall,  C. M. Oana,  R. Olivares-Amaya,  D. P. O'Neill,  
 J. A. Parkhill,  T. M. Perrine,  R. Peverati,  P. A. Pieniazek,  A. Prociuk,  
 D. R. Rehn,  E. Rosta,  N. J. Russ,  N. Sergueev,  S. M. Sharada,  
 S. Sharma,  D. W. Small,  A. Sodt,  T. Stein,  D. Stuck,  Y.-C. Su,  
 A. J. W. Thom,  T. Tsuchimochi,  L. Vogt,  O. Vydrov,  T. Wang,  
 M. A. Watson,  J. Wenzel,  A. White,  C. F. Williams,  V. Vanovschi,  
 S. Yeganeh,  S. R. Yost,  Z.-Q. You,  I. Y. Zhang,  X. Zhang,  Y. Zhao,  
 B. R. Brooks,  G. K. L. Chan,  D. M. Chipman,  C. J. Cramer,  
 W. A. Goddard III,  M. S. Gordon,  W. J. Hehre,  A. Klamt,  
 H. F. Schaefer III,  M. W. Schmidt,  C. D. Sherrill,  D. G. Truhlar,  
 A. Warshel,  X. Xu,  A. Aspuru-Guzik,  R. Baer,  A. T. Bell,  N. A. Besley,  
 J.-D. Chai,  A. Dreuw,  B. D. Dunietz,  T. R. Furlani,  S. R. Gwaltney,  
 C.-P. Hsu,  Y. Jung,  J. Kong,  D. S. Lambrecht,  W. Liang,  C. Ochsenfeld,  
 V. A. Rassolov,  L. V. Slipchenko,  J. E. Subotnik,  T. Van Voorhis,  
 J. M. Herbert,  A. I. Krylov,  P. M. W. Gill,  M. Head-Gordon

 Contributors to earlier versions of Q-Chem not listed above: 
 R. D. Adamson,  J. Baker,  E. F. C. Byrd,  A. K. Chakraborty,  C.-L. Cheng,  
 H. Dachsel,  R. J. Doerksen,  G. Hawkins,  A. Heyden,  S. Hirata,  
 G. Kedziora,  F. J. Keil,  C. Kelley,  P. P. Korambath,  W. Kurlancheek,  
 A. M. Lee,  M. S. Lee,  D. Liotard,  I. Lotan,  P. E. Maslen,  N. Nair,  
 D. Neuhauser,  R. Olson,  B. Peters,  J. Ritchie,  N. E. Schultz,  
 N. Shenvi,  A. C. Simmonett,  K. S. Thanthiriwatte,  Q. Wu,  W. Zhang

 Q-Chem 4.2.2 for Mac (Intel) OS X

 Parts of Q-Chem use Armadillo 4.550.3 (Singapore Sling Deluxe).
 http://arma.sourceforge.net/

 Q-Chem begins on Fri Jun  5 10:04:04 2015  

mc-wireless-pittnet-150-212-11-13.wireless.pitt.edu
Host: 0

     Scratch files written to /Users/albrecht/scratch/qchem/qchem50977//
 May1015 |Users|albrecht|opt|build|qchem|4.3|gen_embedman|libmdc|qstr_info.C -1
 Using version located at /Users/albrecht/opt/dev/qchem/embed/bin/qchem

Processing $rem in /Users/albrecht/.qchemrc.
    geom_opt_tol_gradient       30      ! Override default 300
    geom_opt_tol_displacement   120     ! Override default 1200
    geom_opt_tol_energy         10      ! Override default 100
    geom_opt_max_cycles         500     ! Override default 50
    symmetry              false
    sym_ignore            true
    cc_symmetry           false
    scf_algorithm   diis ! Is default
    maxscf          500  ! Override default
    ccman2          true ! Override default

Total Memory Limit in MB = 2000
Mega-Array Size in MB = 62

Checking the input file for inconsistencies...	...done.
Finally everything over in PARseQInput

--------------------------------------------------------------
User input:
--------------------------------------------------------------
$molecule
0 2
  C -3.77578000 1.41262000 -0.21447000
  O -2.58788000 2.06725000 -0.31292000
  O -4.74823000 1.86911000 -0.79440000
  C -3.94794000 0.18513000 0.64310000
  Si -5.09683000 0.52472000 2.08857000
  H -6.44891000 0.92942000 1.68661000
  H -4.52084000 1.59870000 2.91141000
  H -5.20411000 -0.69259000 2.90604000
  H -2.97500000 -0.09451000 1.10097000
  C -1.91298000 2.29507000 -1.49424000
  H -0.96024000 2.81679000 -1.26960000
  H -2.50277000 2.93872000 -2.17280000
  H -1.67976000 1.33066000 -1.99391000
$end

$rem
    jobtype                     sp
    exchange                    b3lyp
    basis                       sto-3g
    unrestricted                true
    chelpg                      true
    chelpg_head                 30 ! default 30
    chelpg_dx                   6 ! default 6
    !chelpg_h                   ! lebedev grid for H atoms
    !chelpg_ha                  ! lebedev grid for non-H atoms
$end
--------------------------------------------------------------
 ----------------------------------------------------------------
             Standard Nuclear Orientation (Angstroms)
    I     Atom           X                Y                Z
 ----------------------------------------------------------------
    1      C      -3.7757800000     1.4126200000    -0.2144700000
    2      O      -2.5878800000     2.0672500000    -0.3129200000
    3      O      -4.7482300000     1.8691100000    -0.7944000000
    4      C      -3.9479400000     0.1851300000     0.6431000000
    5      Si     -5.0968300000     0.5247200000     2.0885700000
    6      H      -6.4489100000     0.9294200000     1.6866100000
    7      H      -4.5208400000     1.5987000000     2.9114100000
    8      H      -5.2041100000    -0.6925900000     2.9060400000
    9      H      -2.9750000000    -0.0945100000     1.1009700000
   10      C      -1.9129800000     2.2950700000    -1.4942400000
   11      H      -0.9602400000     2.8167900000    -1.2696000000
   12      H      -2.5027700000     2.9387200000    -2.1728000000
   13      H      -1.6797600000     1.3306600000    -1.9939100000
 ----------------------------------------------------------------
 Nuclear Repulsion Energy =   282.6873203285 hartrees
 There are       28 alpha and       27 beta electrons
 Requested basis set is STO-3G
 There are 20 shells and 41 basis functions

Total QAlloc Memory Limit   2000 MB
Mega-Array Size        61 MB
MEM_STATIC part        62 MB

finished with qalloc call

                       Distance Matrix (Angstroms)
             C (  1)   O (  2)   O (  3)   C (  4)   Si(  5)   H (  6)
   O (  2)  1.359904
   O (  3)  1.220803  2.222205
   C (  4)  1.507248  2.511198  2.354285
   Si(  5)  2.799559  3.800182  3.200066  1.877406
   H (  6)  3.315601  4.494478  3.151308  2.810290  1.467472
   H (  7)  3.218830  3.788427  3.722614  2.733427  1.470464  2.380236
   H (  8)  4.026117  4.982277  4.523648  2.732993  1.470241  2.380641
   H (  9)  2.154779  2.611925  3.254624  1.111061  2.420942  3.668713
   C ( 10)  2.426222  1.379460  2.951247  3.627827  5.109556  5.705915
   H ( 11)  3.318472  2.031319  3.933546  4.417059  5.800195  6.513589
   H ( 12)  2.790088  2.055689  2.843614  4.195243  5.542185  5.874041
   H ( 13)  2.750713  2.047675  3.338302  3.662062  5.384473  6.037550
             H (  7)   H (  8)   H (  9)   C ( 10)   H ( 11)   H ( 12)
   H (  8)  2.391003
   H (  9)  2.921348  2.930001
   C ( 10)  5.166780  6.254607  3.684168
   H ( 11)  5.625163  6.911017  4.260813  1.109220
   H ( 12)  5.631825  6.802813  4.487879  1.105704  1.791657
   H ( 13)  5.675011  6.365854  3.645139  1.110922  1.803030  1.815270


 Job number = 2, Threshold = 1.00E-08
Integral type ranges set in mkLRange.C for JobNum: 2  <1-6|1-6>
Symmetry turned off temporarily
 Using the largest function pair in Schwarz integrals
Total number of integrals generated =            8314
Symmetry turned back on
           0
 A cutoff of  1.0D-08 yielded    184 shell pairs
 There are       838 function pairs
 Job number = 11, Threshold = 1.00E-08
Integral type ranges set in mkLRange.C for JobNum: 11  <1-6|7-7>

 -------------------------------------------------------
 OpenMP Integral Computing Module                       
 Release: version 1.0, May 2013, Q-Chem Inc. Pittsburgh 
 -------------------------------------------------------
 Integral Job Info:
 Integral job number is                      11
 Integral operator is                         1
 short-range coefficients               -999999
 long-range coefficients                -999999
 Omega coefficients                           0
 if combine SR and LR in K              -999999
 Integral screening is                        0
 Integral computing path is                   2
 max size of driver memory is            800000
 size of driver memory is                 45569
 size of scratch memory is               945100
 max col of scratch BK array                289
 max len of scratch array in speh3           22
 max len of scratch index in speh4            8
 max int batch size is                      520
 min int batch size is                       52
 fixed nKL is                                52
 max L of basis functions is                  1
 order of int derivative is                   0
 number of shells is                         20
 number of basis is                          41
 number of cartesian basis is                41
 number of contracted shell pairs           184
 number of primitive shell pairs           1104
 maxK2 (contraction) of shell pair            9
 max number of K2 of shell pair               1
 max number of CS2 of shell pair             19
 max number of PS2 of shell pair            153
 mem total for path MDJ                   14214
 -------------------------------------------------------
 Smallest overlap matrix eigenvalue = 2.35E-01
 Multipole matrices computed through 2nd order

  Scale SEOQF with 1.000000e-02/1.000000e-01/1.000000e-01

 Standard Electronic Orientation quadrupole field applied
 Nucleus-field energy     =     0.0000000004 hartrees
 Guess from superposition of atomic densities
 Warning:  Energy on first SCF cycle will be non-variational
scfman initvdwdat 
 An unrestricted hybrid HF-DFT SCF calculation will be
 performed using Pulay DIIS extrapolation
 Exchange:     0.2000 Hartree-Fock + 0.0800 Slater + 0.7200 Becke88
 Correlation:  0.8100 LYP + 0.1900 VWN1RPA
 Using SG-1 standard quadrature grid
 SCF converges when DIIS error is below 1.0E-05
Finding J and K together
 Job number = 22, Threshold = 1.00E-08
Integral type ranges set in mkLRange.C for JobNum: 22  <1-6|1-6>
Storing 517.20% of integrals
Total number of integrals generated =          334633
 MakeJK  time:  CPU       0.11 s  wall       0.11 s
Target Grid is being used
 CPU 0.00 s  wall 0.00 s
NTotSigB2 = 75598
Total Number of Grid Points = 35000
 CPU 1.08 s  wall 1.10 s

 Total DFTman time = 1.08 CPUs 1.10 Wall
Fock build time:  1.19 s (CPU) 1.21 s (wall)
DIIS Errors:  Max 1.53E+00 RMS 1.51E-01

Current DIIS subspace size = 1
REM_GRID_RESTART_DIIS = 0

 ---------------------------------------
  Cycle       Energy         DIIS Error
 ---------------------------------------
    1    -550.9275728158      1.51E-01  00000
Finding J and K together
 Job number = 22, Threshold = 1.00E-08
Integral type ranges set in mkLRange.C for JobNum: 22  <1-6|1-6>
Storing 517.20% of integrals
Reusing in-core integrals buffer for job 22
 MakeJK  time:  CPU       0.03 s  wall       0.03 s
Target Grid is being used
 CPU 0.00 s  wall 0.00 s
NTotSigB2 = 75598
Total Number of Grid Points = 35000
 CPU 0.59 s  wall 0.59 s

 Total DFTman time = 0.59 CPUs 0.59 Wall
Fock build time:  0.62 s (CPU) 0.62 s (wall)
DIIS Errors:  Max 1.83E-01 RMS 2.19E-02

Current DIIS subspace size = 2
REM_GRID_RESTART_DIIS = 0

    2    -551.3457398343      2.19E-02  00000
Finding J and K together
 Job number = 22, Threshold = 1.00E-08
Integral type ranges set in mkLRange.C for JobNum: 22  <1-6|1-6>
Storing 517.20% of integrals
Reusing in-core integrals buffer for job 22
 MakeJK  time:  CPU       0.03 s  wall       0.03 s
Target Grid is being used
 CPU 0.00 s  wall 0.00 s
NTotSigB2 = 75598
Total Number of Grid Points = 35000
 CPU 0.57 s  wall 0.58 s

 Total DFTman time = 0.57 CPUs 0.58 Wall
Fock build time:  0.60 s (CPU) 0.61 s (wall)
DIIS Errors:  Max 5.60E-01 RMS 5.64E-02

Current DIIS subspace size = 3
REM_GRID_RESTART_DIIS = 0

    3    -550.5094663586      5.64E-02  00000
Finding J and K together
 Job number = 22, Threshold = 1.00E-08
Integral type ranges set in mkLRange.C for JobNum: 22  <1-6|1-6>
Storing 517.20% of integrals
Reusing in-core integrals buffer for job 22
 MakeJK  time:  CPU       0.03 s  wall       0.03 s
Target Grid is being used
 CPU 0.00 s  wall 0.00 s
NTotSigB2 = 75598
Total Number of Grid Points = 35000
 CPU 0.58 s  wall 0.59 s

 Total DFTman time = 0.58 CPUs 0.59 Wall
Fock build time:  0.62 s (CPU) 0.62 s (wall)
DIIS Errors:  Max 1.08E-01 RMS 1.40E-02

Current DIIS subspace size = 4
REM_GRID_RESTART_DIIS = 0

    4    -551.4211881787      1.40E-02  00000
Finding J and K together
 Job number = 22, Threshold = 1.00E-08
Integral type ranges set in mkLRange.C for JobNum: 22  <1-6|1-6>
Storing 517.20% of integrals
Reusing in-core integrals buffer for job 22
 MakeJK  time:  CPU       0.03 s  wall       0.03 s
Target Grid is being used
 CPU 0.00 s  wall 0.00 s
NTotSigB2 = 75598
Total Number of Grid Points = 35000
 CPU 0.59 s  wall 0.59 s

 Total DFTman time = 0.59 CPUs 0.59 Wall
Fock build time:  0.62 s (CPU) 0.62 s (wall)
DIIS Errors:  Max 1.63E-02 RMS 2.05E-03

Current DIIS subspace size = 5
REM_GRID_RESTART_DIIS = 0

    5    -551.4885048518      2.05E-03  00000
Finding J and K together
 Job number = 22, Threshold = 1.00E-08
Integral type ranges set in mkLRange.C for JobNum: 22  <1-6|1-6>
Storing 517.20% of integrals
Reusing in-core integrals buffer for job 22
 MakeJK  time:  CPU       0.03 s  wall       0.03 s
Target Grid is being used
 CPU 0.00 s  wall 0.00 s
NTotSigB2 = 75598
Total Number of Grid Points = 35000
 CPU 0.57 s  wall 0.57 s

 Total DFTman time = 0.57 CPUs 0.57 Wall
Fock build time:  0.59 s (CPU) 0.60 s (wall)
DIIS Errors:  Max 6.61E-03 RMS 8.48E-04

Current DIIS subspace size = 6
REM_GRID_RESTART_DIIS = 0

    6    -551.4906536090      8.48E-04  00000
Finding J and K together
 Job number = 22, Threshold = 1.00E-08
Integral type ranges set in mkLRange.C for JobNum: 22  <1-6|1-6>
Storing 517.20% of integrals
Reusing in-core integrals buffer for job 22
 MakeJK  time:  CPU       0.03 s  wall       0.03 s
Target Grid is being used
 CPU 0.00 s  wall 0.00 s
NTotSigB2 = 75598
Total Number of Grid Points = 35000
 CPU 0.51 s  wall 0.52 s

 Total DFTman time = 0.51 CPUs 0.52 Wall
Fock build time:  0.54 s (CPU) 0.55 s (wall)
DIIS Errors:  Max 2.08E-03 RMS 2.59E-04

Current DIIS subspace size = 7
REM_GRID_RESTART_DIIS = 0

    7    -551.4909500890      2.59E-04  00000
Finding J and K together
 Job number = 22, Threshold = 1.00E-08
Integral type ranges set in mkLRange.C for JobNum: 22  <1-6|1-6>
Storing 517.20% of integrals
Reusing in-core integrals buffer for job 22
 MakeJK  time:  CPU       0.03 s  wall       0.03 s
Target Grid is being used
 CPU 0.00 s  wall 0.00 s
NTotSigB2 = 75598
Total Number of Grid Points = 35000
 CPU 0.47 s  wall 0.47 s

 Total DFTman time = 0.47 CPUs 0.47 Wall
Fock build time:  0.50 s (CPU) 0.50 s (wall)
DIIS Errors:  Max 6.61E-04 RMS 9.82E-05

Current DIIS subspace size = 8
REM_GRID_RESTART_DIIS = 0

    8    -551.4910078836      9.82E-05  00000
Finding J and K together
 Job number = 22, Threshold = 1.00E-08
Integral type ranges set in mkLRange.C for JobNum: 22  <1-6|1-6>
Storing 517.20% of integrals
Reusing in-core integrals buffer for job 22
 MakeJK  time:  CPU       0.03 s  wall       0.03 s
Target Grid is being used
 CPU 0.00 s  wall 0.00 s
NTotSigB2 = 75598
Total Number of Grid Points = 35000
 CPU 0.45 s  wall 0.45 s

 Total DFTman time = 0.45 CPUs 0.45 Wall
Fock build time:  0.48 s (CPU) 0.49 s (wall)
DIIS Errors:  Max 4.54E-04 RMS 4.96E-05

Current DIIS subspace size = 9
REM_GRID_RESTART_DIIS = 0

    9    -551.4910323534      4.96E-05  00000
Finding J and K together
 Job number = 22, Threshold = 1.00E-08
Integral type ranges set in mkLRange.C for JobNum: 22  <1-6|1-6>
Storing 517.20% of integrals
Reusing in-core integrals buffer for job 22
 MakeJK  time:  CPU       0.03 s  wall       0.03 s
Target Grid is being used
 CPU 0.00 s  wall 0.00 s
NTotSigB2 = 75598
Total Number of Grid Points = 35000
 CPU 0.41 s  wall 0.41 s

 Total DFTman time = 0.41 CPUs 0.41 Wall
Fock build time:  0.44 s (CPU) 0.44 s (wall)
DIIS Errors:  Max 2.65E-04 RMS 3.14E-05

Current DIIS subspace size = 10
REM_GRID_RESTART_DIIS = 0

   10    -551.4910419885      3.14E-05  00000
Finding J and K together
 Job number = 22, Threshold = 1.00E-08
Integral type ranges set in mkLRange.C for JobNum: 22  <1-6|1-6>
Storing 517.20% of integrals
Reusing in-core integrals buffer for job 22
 MakeJK  time:  CPU       0.03 s  wall       0.03 s
Target Grid is being used
 CPU 0.00 s  wall 0.00 s
NTotSigB2 = 75598
Total Number of Grid Points = 35000
 CPU 0.39 s  wall 0.39 s

 Total DFTman time = 0.39 CPUs 0.39 Wall
Fock build time:  0.42 s (CPU) 0.43 s (wall)
DIIS Errors:  Max 1.48E-04 RMS 1.77E-05

Current DIIS subspace size = 11
REM_GRID_RESTART_DIIS = 0

   11    -551.4910461767      1.77E-05  00000
Finding J and K together
 Job number = 22, Threshold = 1.00E-08
Integral type ranges set in mkLRange.C for JobNum: 22  <1-6|1-6>
Storing 517.20% of integrals
Reusing in-core integrals buffer for job 22
 MakeJK  time:  CPU       0.03 s  wall       0.03 s
Target Grid is being used
 CPU 0.00 s  wall 0.00 s
NTotSigB2 = 75598
Total Number of Grid Points = 35000
 CPU 0.39 s  wall 0.39 s

 Total DFTman time = 0.39 CPUs 0.39 Wall
Fock build time:  0.42 s (CPU) 0.43 s (wall)
DIIS Errors:  Max 5.88E-05 RMS 7.21E-06

Current DIIS subspace size = 12
REM_GRID_RESTART_DIIS = 0

   12    -551.4910479237      7.21E-06  00000 Convergence criterion met
 ---------------------------------------
 <S^2> = 0.7679
 SCF time:  CPU 7.07 s  wall 7.15 s
 SCF   energy in the final basis set = -551.4910479237
 Total energy in the final basis set = -551.4910479237
Symmetry turned off temporarily
 Analysis of SCF Wavefunction

 --------------------------------------------------------------

                    Orbital Energies (a.u.)
 --------------------------------------------------------------

 Alpha MOs
 -- Occupied --
-65.380 -18.913 -18.873 -10.111 -10.081  -9.979  -5.102  -3.403
 -3.402  -3.402  -1.039  -0.957  -0.702  -0.656  -0.514  -0.481
 -0.432  -0.425  -0.410  -0.349  -0.336  -0.316  -0.291  -0.275
 -0.225  -0.193  -0.165  -0.148
 -- Virtual --
  0.111   0.270   0.301   0.329   0.348   0.358   0.403   0.428
  0.430   0.438   0.470   0.550   0.672

 Beta MOs
 -- Occupied --
-65.380 -18.913 -18.869 -10.113 -10.081  -9.964  -5.102  -3.403
 -3.403  -3.402  -1.036  -0.949  -0.691  -0.640  -0.512  -0.477
 -0.426  -0.425  -0.407  -0.340  -0.329  -0.305  -0.290  -0.261
 -0.212  -0.166  -0.141
 -- Virtual --
 -0.014   0.136   0.276   0.311   0.332   0.355   0.364   0.404
  0.428   0.435   0.452   0.477   0.555   0.678
 --------------------------------------------------------------

          Ground-State Mulliken Net Atomic Charges

     Atom                 Charge (a.u.)    Spin (a.u.)
  --------------------------------------------------------
      1 C                     0.218464      -0.130687
      2 O                    -0.228930      -0.015477
      3 O                    -0.212352       0.241733
      4 C                    -0.218299       0.928663
      5 Si                    0.588138      -0.038649
      6 H                    -0.120142       0.002044
      7 H                    -0.118972       0.040893
      8 H                    -0.128991       0.000516
      9 H                     0.063838      -0.026249
     10 C                    -0.097432      -0.001883
     11 H                     0.092631       0.000183
     12 H                     0.083104       0.000294
     13 H                     0.078944      -0.001382
  --------------------------------------------------------
  Sum of atomic charges =     0.000000
  Sum of spin   charges =     1.000000

Compute ChElPG charges using a head room of 3.00 A and a grid spacing of 0.300 A
Total Grid Volume 13128.4116037955 A^3
ChElPG fitting will utilize 100311 grid points
 Job number = 12, Threshold = 1.00E-06
Integral type ranges set in mkLRange.C for JobNum: 12  <1-6|7-7>
CHELPG time 2.59 (cpu) 2.60 (wall) 
         Ground-State ChElPG Net Atomic Charges

     Atom                 Charge (a.u.)
  ----------------------------------------
      1 C                     0.622552
      2 O                    -0.328528
      3 O                    -0.351954
      4 C                    -0.286945
      5 Si                    0.409968
      6 H                    -0.095010
      7 H                    -0.089846
      8 H                    -0.093395
      9 H                     0.074000
     10 C                    -0.082022
     11 H                     0.083964
     12 H                     0.077568
     13 H                     0.059649
  ----------------------------------------
  Sum of atomic charges =     0.000000

 -----------------------------------------------------------------
                    Cartesian Multipole Moments
 -----------------------------------------------------------------
    Charge (ESU x 10^10)
                 0.0000
    Dipole Moment (Debye)
         X       1.3455      Y      -0.5522      Z       0.2122
       Tot       1.4698
    Quadrupole Moments (Debye-Ang)
        XX     -50.1575     XY       4.7721     YY     -41.7389
        XZ      -4.0361     YZ      -0.2214     ZZ     -37.9802
    Octopole Moments (Debye-Ang^2)
       XXX     531.1663    XXY     -76.1264    XYY     168.8574
       YYY    -148.6718    XXZ       9.7874    XYZ      -6.9045
       YYZ     -19.4650    XZZ     150.8795    YZZ     -45.3603
       ZZZ     -49.4225
    Hexadecapole Moments (Debye-Ang^3)
      XXXX   -4441.3366   XXXY     635.2837   XXYY    -839.4009
      XYYY     506.4344   YYYY    -573.1961   XXXZ     217.4120
      XXYZ      71.3451   XYYZ     117.1615   YYYZ      52.6619
      XXZZ    -757.7855   XYZZ     150.7324   YYZZ    -187.4500
      XZZZ     357.3931   YZZZ      61.2064   ZZZZ    -568.6315
 -----------------------------------------------------------------
 JobOver = TRUE
Archival summary:
1\1\mc-wireless-pittnet-150-212-11-13.wireless.pitt.edu\SP\ProcedureUnspecified\STO-3G\i1237(2)\FriJun510:04:142015FriJun510:04:142015\0\\#,ProcedureUnspecified,STO-3G,\\0,2\Si\H,1,1.46747\H,1,1.47024,2,108.265\H,1,1.47046,2,108.226,3,117.766,0\C,1,1.87741,2,113.755,3,-121.121,0\H,5,1.11106,1,105.315,2,-179.386,0\C,5,1.50725,1,111.14,2,-60.4917,0\O,7,1.2208,5,118.935,1,63.5295,0\O,7,1.3599,5,122.208,1,-113.208,0\C,9,1.37946,7,124.671,5,-122.551,0\H,10,1.1057,9,111.144,7,-63.1467,0\H,10,1.10922,9,108.934,7,178.003,0\H,10,1.11092,9,110.152,7,58.9757,0\\\@

 Total job time:  9.83s(wall), 9.72s(cpu) 
 Fri Jun  5 10:04:14 2015

        *************************************************************
        *                                                           *
        *  Thank you very much for using Q-Chem.  Have a nice day.  *
        *                                                           *
        *************************************************************


*** MISSION COMPLETED -- STARFLEET OUT ***

