 DBCSR| Multiplication driver                                                SMM
 DBCSR| Multrec recursion limit                                              512
 DBCSR| Multiplication stack size                                           1000
 DBCSR| Multiplication size stacks                                             3
 DBCSR| Use subcommunicators                                                   T
 DBCSR| Use MPI combined types                                                 F
 DBCSR| Use MPI memory allocation                                              T
 DBCSR| Use Communication thread                                               T
 DBCSR| Communication thread load                                             87


  **** **** ******  **  PROGRAM STARTED AT               2015-03-10 12:06:45.563
 ***** ** ***  *** **   PROGRAM STARTED ON                                  n272
 **    ****   ******    PROGRAM STARTED BY                                 bja39
 ***** **    ** ** **   PROGRAM PROCESS ID                                 13327
  **** **  *******  **  PROGRAM STARTED IN /home/dlambrecht/bja39/cp2k/hfx/hfx50

 CP2K| version string:                                          CP2K version 2.6
 CP2K| source code revision number:                                  git:9520686
 CP2K| is freely available from                             http://www.cp2k.org/
 CP2K| Program compiled at                          Fri Feb 27 09:44:54 EST 2015
 CP2K| Program compiled on                            login0a.frank.sam.pitt.edu
 CP2K| Program compiled for                                                Frank
 CP2K| Input file name                                                   hfx.inp
 
 GLOBAL| Force Environment number                                              1
 GLOBAL| Basis set file name                                           HFX_BASIS
 GLOBAL| Geminal file name                                         BASIS_GEMINAL
 GLOBAL| Potential file name                                      GTH_POTENTIALS
 GLOBAL| MM Potential file name                                     MM_POTENTIAL
 GLOBAL| Coordinate file name                                          water.xyz
 GLOBAL| Method name                                                        CP2K
 GLOBAL| Project name                                                      WATER
 GLOBAL| Preferred FFT library                                             FFTW3
 GLOBAL| Preferred diagonalization lib.                                       SL
 GLOBAL| Run type                                                         ENERGY
 GLOBAL| All-to-all communication in single precision                          F
 GLOBAL| FFTs using library dependent lengths                                  F
 GLOBAL| Global print level                                               MEDIUM
 GLOBAL| Total number of message passing processes                            64
 GLOBAL| Number of threads for this process                                    1
 GLOBAL| This output is from process                                           0

 MEMORY| system memory details [Kb]
 MEMORY|                        rank 0           min           max       average
 MEMORY| MemTotal             32989296      32989296      32989296      32989296
 MEMORY| MemFree              29974508      10040388      30862384      20234079
 MEMORY| Buffers                   992           992          1360          1174
 MEMORY| Cached                1546580        668064      20515088      10806466
 MEMORY| Slab                   135480        131264       1080616        602824
 MEMORY| SReclaimable            33264         29076        762108        393874
 MEMORY| MemLikelyFree        31555344      31307884      31565016      31435593


 *** Fundamental physical constants (SI units) ***

 *** Literature: B. J. Mohr and B. N. Taylor,
 ***             CODATA recommended values of the fundamental physical
 ***             constants: 2006, Web Version 5.1
 ***             http://physics.nist.gov/constants

 Speed of light in vacuum [m/s]                             2.99792458000000E+08
 Magnetic constant or permeability of vacuum [N/A**2]       1.25663706143592E-06
 Electric constant or permittivity of vacuum [F/m]          8.85418781762039E-12
 Planck constant (h) [J*s]                                  6.62606896000000E-34
 Planck constant (h-bar) [J*s]                              1.05457162825177E-34
 Elementary charge [C]                                      1.60217648700000E-19
 Electron mass [kg]                                         9.10938215000000E-31
 Electron g factor [ ]                                     -2.00231930436220E+00
 Proton mass [kg]                                           1.67262163700000E-27
 Fine-structure constant                                    7.29735253760000E-03
 Rydberg constant [1/m]                                     1.09737315685270E+07
 Avogadro constant [1/mol]                                  6.02214179000000E+23
 Boltzmann constant [J/K]                                   1.38065040000000E-23
 Atomic mass unit [kg]                                      1.66053878200000E-27
 Bohr radius [m]                                            5.29177208590000E-11

 *** Conversion factors ***

 [u] -> [a.u.]                                              1.82288848426455E+03
 [Angstrom] -> [Bohr] = [a.u.]                              1.88972613288564E+00
 [a.u.] = [Bohr] -> [Angstrom]                              5.29177208590000E-01
 [a.u.] -> [s]                                              2.41888432650478E-17
 [a.u.] -> [fs]                                             2.41888432650478E-02
 [a.u.] -> [J]                                              4.35974393937059E-18
 [a.u.] -> [N]                                              8.23872205491840E-08
 [a.u.] -> [K]                                              3.15774647902944E+05
 [a.u.] -> [kJ/mol]                                         2.62549961709828E+03
 [a.u.] -> [kcal/mol]                                       6.27509468713739E+02
 [a.u.] -> [Pa]                                             2.94210107994716E+13
 [a.u.] -> [bar]                                            2.94210107994716E+08
 [a.u.] -> [atm]                                            2.90362800883016E+08
 [a.u.] -> [eV]                                             2.72113838565563E+01
 [a.u.] -> [Hz]                                             6.57968392072181E+15
 [a.u.] -> [1/cm] (wave numbers)                            2.19474631370540E+05
 [a.u./Bohr**2] -> [1/cm]                                   5.14048714338585E+03
 

 CELL_TOP| Volume [angstrom^3]:                                         1915.864
 CELL_TOP| Vector a [angstrom    12.420     0.000     0.000    |a| =      12.420
 CELL_TOP| Vector b [angstrom     0.000    12.420     0.000    |b| =      12.420
 CELL_TOP| Vector c [angstrom     0.000     0.000    12.420    |c| =      12.420
 CELL_TOP| Angle (b,c), alpha [degree]:                                   90.000
 CELL_TOP| Angle (a,c), beta  [degree]:                                   90.000
 CELL_TOP| Angle (a,b), gamma [degree]:                                   90.000
 CELL_TOP| Numerically orthorhombic:                                         YES
 
 GENERATE|  Preliminary Number of Bonds generated:                             0
 GENERATE|  Achieved consistency in connectivity generation.

 CELL| Volume [angstrom^3]:                                             1915.864
 CELL| Vector a [angstrom]:      12.420     0.000     0.000    |a| =      12.420
 CELL| Vector b [angstrom]:       0.000    12.420     0.000    |b| =      12.420
 CELL| Vector c [angstrom]:       0.000     0.000    12.420    |c| =      12.420
 CELL| Angle (b,c), alpha [degree]:                                       90.000
 CELL| Angle (a,c), beta  [degree]:                                       90.000
 CELL| Angle (a,b), gamma [degree]:                                       90.000
 CELL| Numerically orthorhombic:                                             YES

 CELL_REF| Volume [angstrom^3]:                                         1915.864
 CELL_REF| Vector a [angstrom    12.420     0.000     0.000    |a| =      12.420
 CELL_REF| Vector b [angstrom     0.000    12.420     0.000    |b| =      12.420
 CELL_REF| Vector c [angstrom     0.000     0.000    12.420    |c| =      12.420
 CELL_REF| Angle (b,c), alpha [degree]:                                   90.000
 CELL_REF| Angle (a,c), beta  [degree]:                                   90.000
 CELL_REF| Angle (a,b), gamma [degree]:                                   90.000
 CELL_REF| Numerically orthorhombic:                                         YES

 *******************************************************************************
 *******************************************************************************
 **                                                                           **
 **     #####                         ##              ##                      **
 **    ##   ##            ##          ##              ##                      **
 **   ##     ##                       ##            ######                    **
 **   ##     ##  ##   ##  ##   #####  ##  ##   ####   ##    #####    #####    **
 **   ##     ##  ##   ##  ##  ##      ## ##   ##      ##   ##   ##  ##   ##   **
 **   ##  ## ##  ##   ##  ##  ##      ####     ###    ##   ######   ######    **
 **    ##  ###   ##   ##  ##  ##      ## ##      ##   ##   ##       ##        **
 **     #######   #####   ##   #####  ##  ##  ####    ##    #####   ##        **
 **           ##                                                    ##        **
 **                                                                           **
 **                                                ... make the atoms dance   **
 **                                                                           **
 **            Copyright (C) by CP2K Developers Group (2000 - 2014)           **
 **                                                                           **
 *******************************************************************************

 DFT| Spin restricted Kohn-Sham (RKS) calculation                            RKS
 DFT| Multiplicity                                                             1
 DFT| Number of spin states                                                    1
 DFT| Charge                                                                   0
 DFT| Self-interaction correction (SIC)                                       NO
 DFT| Cutoffs: density                                              1.000000E-10
 DFT|          gradient                                             1.000000E-10
 DFT|          tau                                                  1.000000E-10
 DFT|          cutoff_smoothing_range                               0.000000E+00
 DFT| XC density smoothing                                                  NONE
 DFT| XC derivatives                                                          PW
 FUNCTIONAL| ROUTINE=NEW
 FUNCTIONAL| PBE:
 FUNCTIONAL| J.P.Perdew, K.Burke, M.Ernzerhof, Phys. Rev. Letter, vol. 77, n 18,
 FUNCTIONAL|  pp. 3865-3868, (1996)sx=0.500sc=1.000{spin unpolarized}
 vdW POTENTIAL|                                                   Pair Potential
 vdW POTENTIAL|          DFT-D3 (Version 3.1)
 vdW POTENTIAL|          Potential Form: S. Grimme et al, JCP 132: 154104 (2010)
 vdW POTENTIAL|          Zero Damping
 vdW POTENTIAL|          Cutoff Radius [Bohr]:                             30.24
 vdW POTENTIAL|          s6 Scaling Factor:                               1.0000
 vdW POTENTIAL|          sr6 Scaling Factor:                              1.2870
 vdW POTENTIAL|          s8 Scaling Factor:                               0.9280
 vdW POTENTIAL|          Cutoff for CN calculation:                   0.1000E-05

 QS| Method:                                                                 GPW
 QS| Density plane wave grid type                        NON-SPHERICAL FULLSPACE
 QS| Number of grid levels:                                                    4
 QS| Density cutoff [a.u.]:                                                200.0
 QS| Multi grid cutoff [a.u.]: 1) grid level                               200.0
 QS|                           2) grid level                                66.7
 QS|                           3) grid level                                22.2
 QS|                           4) grid level                                 7.4
 QS| Grid level progression factor:                                          3.0
 QS| Relative density cutoff [a.u.]:                                        20.0
 QS| Consistent realspace mapping and integration 
 QS| Interaction thresholds: eps_pgf_orb:                                1.0E-05
 QS|                         eps_filter_matrix:                          0.0E+00
 QS|                         eps_core_charge:                            1.0E-12
 QS|                         eps_rho_gspace:                             1.0E-10
 QS|                         eps_rho_rspace:                             1.0E-10
 QS|                         eps_gvg_rspace:                             1.0E-05
 QS|                         eps_ppl:                                    1.0E-02
 QS|                         eps_ppnl:                                   1.0E-07


 ATOMIC KIND INFORMATION

  1. Atomic kind: O                                     Number of atoms:      64

     Orbital Basis Set                                                  DZVP-GTH

       Number of orbital shell sets:                                           3
       Number of orbital shells:                                               5
       Number of primitive Cartesian functions:                                5
       Number of Cartesian basis functions:                                   14
       Number of spherical basis functions:                                   13
       Norm type:                                                              2

       Normalised Cartesian orbitals:

                        Set   Shell   Orbital            Exponent    Coefficient

                          1       1    2s                8.304386       0.778600
                                                         2.457948      -0.081348
                                                         0.759737      -0.597925

                          1       2    3px               8.304386      -2.634104
                                                         2.457948      -1.739269
                                                         0.759737      -0.632383
                          1       2    3py               8.304386      -2.634104
                                                         2.457948      -1.739269
                                                         0.759737      -0.632383
                          1       2    3pz               8.304386      -2.634104
                                                         2.457948      -1.739269
                                                         0.759737      -0.632383

                          2       1    2s                0.213639       0.223960

                          2       2    3px               0.213639       0.207033
                          2       2    3py               0.213639       0.207033
                          2       2    3pz               0.213639       0.207033

                          3       1    3dx2              1.185000       2.215218
                          3       1    3dxy              1.185000       3.836871
                          3       1    3dxz              1.185000       3.836871
                          3       1    3dy2              1.185000       2.215218
                          3       1    3dyz              1.185000       3.836871
                          3       1    3dz2              1.185000       2.215218

     Potential information for                                        GTH-PBE-q6

       Description:                       Goedecker-Teter-Hutter pseudopotential
                                           Goedecker et al., PRB 54, 1703 (1996)
                                          Hartwigsen et al., PRB 58, 3641 (1998)
                                                      Krack, TCA 114, 145 (2005)

       Gaussian exponent of the core charge distribution:               8.360253
       Electronic configuration (s p d ...):                               2   4

       Parameters of the local part of the GTH pseudopotential:

                          rloc        C1          C2          C3          C4
                        0.244554  -16.667215    2.487311

       Parameters of the non-local part of the GTH pseudopotential:

                   l      r(l)      h(i,j,l)

                   0    0.220956   18.337458
                   1    0.211332

  2. Atomic kind: H                                     Number of atoms:     128

     Orbital Basis Set                                                  DZVP-GTH

       Number of orbital shell sets:                                           3
       Number of orbital shells:                                               3
       Number of primitive Cartesian functions:                                5
       Number of Cartesian basis functions:                                    5
       Number of spherical basis functions:                                    5
       Norm type:                                                              2

       Normalised Cartesian orbitals:

                        Set   Shell   Orbital            Exponent    Coefficient

                          1       1    1s                8.374435      -0.191705
                                                         1.805868      -0.285532
                                                         0.485253      -0.319237

                          2       1    1s                0.165824       0.185202

                          3       1    2px               0.727000       0.956881
                          3       1    2py               0.727000       0.956881
                          3       1    2pz               0.727000       0.956881

     Potential information for                                        GTH-PBE-q1

       Description:                       Goedecker-Teter-Hutter pseudopotential
                                           Goedecker et al., PRB 54, 1703 (1996)
                                          Hartwigsen et al., PRB 58, 3641 (1998)
                                                      Krack, TCA 114, 145 (2005)

       Gaussian exponent of the core charge distribution:              12.500000
       Electronic configuration (s p d ...):                                   1

       Parameters of the local part of the GTH pseudopotential:

                          rloc        C1          C2          C3          C4
                        0.200000   -4.178900    0.724463


 MOLECULE KIND INFORMATION


 All atoms are their own molecule, skipping detailed information


 TOTAL NUMBERS AND MAXIMUM NUMBERS

  Total number of            - Atomic kinds:                                   2
                             - Atoms:                                        192
                             - Shell sets:                                   576
                             - Shells:                                       704
                             - Primitive Cartesian functions:                960
                             - Cartesian basis functions:                   1536
                             - Spherical basis functions:                   1472

  Maximum angular momentum of- Orbital basis functions:                        2
                             - Local part of the GTH pseudopotential:          2
                             - Non-local part of the GTH pseudopotential:      0


 MODULE QUICKSTEP:  ATOMIC COORDINATES IN angstrom

  Atom  Kind  Element       X           Y           Z          Z(eff)       Mass

       1     1 O    8    3.858587   -4.753318    5.509197      6.00      15.9994
       2     2 H    1    4.210995   -5.556871    5.999459      1.00       1.0079
       3     2 H    1    3.094708   -4.317266    5.913595      1.00       1.0079
       4     1 O    8   -3.546076    1.745624    4.288021      6.00      15.9994
       5     2 H    1   -3.357258    0.836994    4.152946      1.00       1.0079
       6     2 H    1   -3.608914    1.943698    5.269839      1.00       1.0079
       7     1 O    8    4.569136    2.934327   -7.099972      6.00      15.9994
       8     2 H    1    3.678596    3.229107   -6.804983      1.00       1.0079
       9     2 H    1    4.495367    2.784591   -8.045803      1.00       1.0079
      10     1 O    8   -2.573180   -0.106310   -3.414714      6.00      15.9994
      11     2 H    1   -2.038669    0.415523   -2.828965      1.00       1.0079
      12     2 H    1   -1.889161   -0.614820   -3.928063      1.00       1.0079
      13     1 O    8   -3.762503   -7.710594    5.627998      6.00      15.9994
      14     2 H    1   -4.634354   -7.419980    5.987479      1.00       1.0079
      15     2 H    1   -3.852063   -7.634849    4.660781      1.00       1.0079
      16     1 O    8   -6.713126   -0.075920    2.317684      6.00      15.9994
      17     2 H    1   -6.041585   -0.456040    3.007998      1.00       1.0079
      18     2 H    1   -6.258264    0.734307    1.958295      1.00       1.0079
      19     1 O    8    4.010954   -5.581769   -0.412691      6.00      15.9994
      20     2 H    1    3.332131   -5.616691    0.307694      1.00       1.0079
      21     2 H    1    3.905154   -4.753344   -0.836952      1.00       1.0079
      22     1 O    8   -2.669263   -3.081051   -1.225935      6.00      15.9994
      23     2 H    1   -3.248632   -2.449171   -1.738693      1.00       1.0079
      24     2 H    1   -2.191896   -2.598852   -0.576307      1.00       1.0079
      25     1 O    8    5.457624   -3.168804    3.100260      6.00      15.9994
      26     2 H    1    4.685499   -3.245800    3.622418      1.00       1.0079
      27     2 H    1    5.257937   -3.050750    2.131140      1.00       1.0079
      28     1 O    8    2.007879    3.802589   -6.644120      6.00      15.9994
      29     2 H    1    1.380904    3.070273   -6.803869      1.00       1.0079
      30     2 H    1    1.836607    4.066629   -5.709998      1.00       1.0079
      31     1 O    8    4.060883   -3.892921   -3.059677      6.00      15.9994
      32     2 H    1    3.233271   -3.720667   -3.695376      1.00       1.0079
      33     2 H    1    4.336690   -2.982510   -2.984822      1.00       1.0079
      34     1 O    8    1.977359   -1.844229    1.022567      6.00      15.9994
      35     2 H    1    1.565064   -2.471360    1.649594      1.00       1.0079
      36     2 H    1    1.619481   -1.913312    0.065695      1.00       1.0079
      37     1 O    8    0.733845   -5.743288   -5.010069      6.00      15.9994
      38     2 H    1    1.479577   -6.329923   -4.818933      1.00       1.0079
      39     2 H    1    0.449115   -5.709569   -5.947356      1.00       1.0079
      40     1 O    8   -7.516646   -8.678106   -3.237157      6.00      15.9994
      41     2 H    1   -7.873766   -9.602722   -3.081415      1.00       1.0079
      42     2 H    1   -7.132394   -8.578896   -2.346766      1.00       1.0079
      43     1 O    8    3.008996   -1.620693    5.170452      6.00      15.9994
      44     2 H    1    3.854786   -1.802286    5.686635      1.00       1.0079
      45     2 H    1    3.170083   -0.818538    4.610243      1.00       1.0079
      46     1 O    8   -0.094349    1.863471   -6.686135      6.00      15.9994
      47     2 H    1    0.238983    1.055233   -6.317038      1.00       1.0079
      48     2 H    1   -0.053460    1.737047   -7.652783      1.00       1.0079
      49     1 O    8    1.380300   -3.081547    3.659847      6.00      15.9994
      50     2 H    1    2.005275   -2.679362    4.316923      1.00       1.0079
      51     2 H    1    1.097394   -3.966638    3.981340      1.00       1.0079
      52     1 O    8   -2.327913    2.806079    2.234742      6.00      15.9994
      53     2 H    1   -1.623045    2.131523    2.186616      1.00       1.0079
      54     2 H    1   -2.760923    2.581957    3.088951      1.00       1.0079
      55     1 O    8    0.874513   -0.661119   -5.600405      6.00      15.9994
      56     2 H    1    1.720402   -0.818966   -6.109861      1.00       1.0079
      57     2 H    1    1.196412   -0.240506   -4.754906      1.00       1.0079
      58     1 O    8   -1.186646   -0.716403    0.243785      6.00      15.9994
      59     2 H    1   -1.134001    0.232571   -0.072616      1.00       1.0079
      60     2 H    1   -0.933544   -0.785478    1.201134      1.00       1.0079
      61     1 O    8   -3.886194   -9.012929   -3.131857      6.00      15.9994
      62     2 H    1   -4.498349   -8.280126   -3.216022      1.00       1.0079
      63     2 H    1   -2.918386   -8.730140   -3.122451      1.00       1.0079
      64     1 O    8    4.978441    4.557411    2.160598      6.00      15.9994
      65     2 H    1    4.574251    4.069025    1.437504      1.00       1.0079
      66     2 H    1    4.210678    4.907944    2.673609      1.00       1.0079
      67     1 O    8    4.207481    1.029475   -3.213494      6.00      15.9994
      68     2 H    1    4.625087    0.852431   -4.064867      1.00       1.0079
      69     2 H    1    4.422152    0.192039   -2.736436      1.00       1.0079
      70     1 O    8   -5.210635   -6.346370   -2.680646      6.00      15.9994
      71     2 H    1   -5.380163   -6.086183   -1.773761      1.00       1.0079
      72     2 H    1   -5.998555   -6.089431   -3.152188      1.00       1.0079
      73     1 O    8    4.827201   -2.149309    0.695756      6.00      15.9994
      74     2 H    1    5.169811   -1.384311    1.168073      1.00       1.0079
      75     2 H    1    3.873140   -2.015277    0.790152      1.00       1.0079
      76     1 O    8    2.108497    0.940656    1.696470      6.00      15.9994
      77     2 H    1    2.763570    1.510652    1.258248      1.00       1.0079
      78     2 H    1    2.313842    0.079150    1.294322      1.00       1.0079
      79     1 O    8   -5.757905   -5.093599   -0.361373      6.00      15.9994
      80     2 H    1   -6.692202   -5.443891   -0.243446      1.00       1.0079
      81     2 H    1   -5.933954   -4.185226   -0.689323      1.00       1.0079
      82     1 O    8   -4.850118    4.634751    2.632366      6.00      15.9994
      83     2 H    1   -5.818692    4.729150    2.364808      1.00       1.0079
      84     2 H    1   -4.768696    3.668506    2.248911      1.00       1.0079
      85     1 O    8    5.512389    0.852383   -5.592791      6.00      15.9994
      86     2 H    1    6.400927    1.196167   -5.345498      1.00       1.0079
      87     2 H    1    5.032627    1.457110   -6.282087      1.00       1.0079
      88     1 O    8    0.736518   -1.917695   -1.272458      6.00      15.9994
      89     2 H    1    0.436663   -2.668596   -1.845250      1.00       1.0079
      90     2 H    1   -0.028072   -1.634696   -0.732364      1.00       1.0079
      91     1 O    8    3.900594    2.622197    0.082498      6.00      15.9994
      92     2 H    1    4.660363    2.413641   -0.488502      1.00       1.0079
      93     2 H    1    3.361931    3.246591   -0.459951      1.00       1.0079
      94     1 O    8   -1.099162   -1.369341    2.949888      6.00      15.9994
      95     2 H    1   -0.335406   -2.036901    3.107502      1.00       1.0079
      96     2 H    1   -1.847346   -1.991636    3.203214      1.00       1.0079
      97     1 O    8    2.071845   -5.650168    1.362908      6.00      15.9994
      98     2 H    1    1.204362   -6.136982    1.256069      1.00       1.0079
      99     2 H    1    2.450750   -5.885909    2.255821      1.00       1.0079
     100     1 O    8   -0.628031   -3.827349   -2.846086      6.00      15.9994
     101     2 H    1   -1.558364   -3.776964   -2.581114      1.00       1.0079
     102     2 H    1   -0.511229   -4.587952   -3.398223      1.00       1.0079
     103     1 O    8   -5.291843    2.062167    1.435301      6.00      15.9994
     104     2 H    1   -4.454945    1.877605    1.901455      1.00       1.0079
     105     2 H    1   -5.133594    1.919821    0.419723      1.00       1.0079
     106     1 O    8    1.959972   -3.424563   -5.267360      6.00      15.9994
     107     2 H    1    1.322556   -4.212309   -5.038883      1.00       1.0079
     108     2 H    1    1.299929   -2.771147   -5.498678      1.00       1.0079
     109     1 O    8   -1.193321    3.936851   -3.373747      6.00      15.9994
     110     2 H    1   -1.200301    3.980365   -4.358294      1.00       1.0079
     111     2 H    1   -0.740251    4.650096   -2.940559      1.00       1.0079
     112     1 O    8   -5.424398   -5.002981    4.278463      6.00      15.9994
     113     2 H    1   -6.116403   -4.512700    3.781732      1.00       1.0079
     114     2 H    1   -4.740320   -5.349861    3.692094      1.00       1.0079
     115     1 O    8    2.973298    5.793755    3.604183      6.00      15.9994
     116     2 H    1    3.417671    6.472671    4.169501      1.00       1.0079
     117     2 H    1    2.448520    5.204109    4.225087      1.00       1.0079
     118     1 O    8   -4.051130    1.544593   -5.062650      6.00      15.9994
     119     2 H    1   -3.538710    0.797484   -4.621055      1.00       1.0079
     120     2 H    1   -4.033382    2.351849   -4.430137      1.00       1.0079
     121     1 O    8    3.484773    0.599769    4.009149      6.00      15.9994
     122     2 H    1    2.789650    0.537511    3.268667      1.00       1.0079
     123     2 H    1    4.318998    0.415332    3.439528      1.00       1.0079
     124     1 O    8   -4.620748   -1.011762    4.004895      6.00      15.9994
     125     2 H    1   -5.347759   -1.244306    4.625324      1.00       1.0079
     126     2 H    1   -4.216388   -1.884479    3.842806      1.00       1.0079
     127     1 O    8   -0.216539    1.275147    3.116717      6.00      15.9994
     128     2 H    1    0.637178    1.413680    2.728697      1.00       1.0079
     129     2 H    1   -0.389412    0.322584    3.050879      1.00       1.0079
     130     1 O    8   -1.991535    5.069708    0.600019      6.00      15.9994
     131     2 H    1   -2.337650    4.234088    1.001390      1.00       1.0079
     132     2 H    1   -2.652025    5.747116    0.850662      1.00       1.0079
     133     1 O    8   -1.307547   -1.895612   -4.954292      6.00      15.9994
     134     2 H    1   -0.870125   -2.402819   -4.256374      1.00       1.0079
     135     2 H    1   -0.594969   -1.353212   -5.453243      1.00       1.0079
     136     1 O    8   -5.137345    1.806207   -1.286768      6.00      15.9994
     137     2 H    1   -4.698159    2.459748   -1.850567      1.00       1.0079
     138     2 H    1   -5.424553    1.125693   -1.863395      1.00       1.0079
     139     1 O    8   -7.383656   -1.211987   -1.950660      6.00      15.9994
     140     2 H    1   -6.421288   -1.037143   -2.146380      1.00       1.0079
     141     2 H    1   -7.480878   -1.531048   -1.033948      1.00       1.0079
     142     1 O    8   -0.463945    1.404847   -1.722864      6.00      15.9994
     143     2 H    1   -0.786735    2.186650   -2.196230      1.00       1.0079
     144     2 H    1    0.274393    0.986416   -2.221585      1.00       1.0079
     145     1 O    8   -0.029811   -6.521092   -1.093364      6.00      15.9994
     146     2 H    1    0.002142   -5.531145   -1.122665      1.00       1.0079
     147     2 H    1   -0.803113   -6.743514   -0.464856      1.00       1.0079
     148     1 O    8    5.709094   -1.692709    6.018549      6.00      15.9994
     149     2 H    1    6.022772   -2.510238    6.419541      1.00       1.0079
     150     2 H    1    5.679350   -0.901240    6.652196      1.00       1.0079
     151     1 O    8   -2.596298   -5.768397   -4.219577      6.00      15.9994
     152     2 H    1   -2.604903   -6.707767   -4.472834      1.00       1.0079
     153     2 H    1   -3.435454   -5.564584   -3.848351      1.00       1.0079
     154     1 O    8   -4.944969   -1.408672   -3.247339      6.00      15.9994
     155     2 H    1   -4.891302   -2.221732   -3.767422      1.00       1.0079
     156     2 H    1   -3.968955   -1.096486   -3.234198      1.00       1.0079
     157     1 O    8    2.298375   -8.080949   -1.213241      6.00      15.9994
     158     2 H    1    1.300368   -8.063628   -1.114392      1.00       1.0079
     159     2 H    1    2.516194   -7.105367   -1.176852      1.00       1.0079
     160     1 O    8    6.775436   -3.896533   -5.335926      6.00      15.9994
     161     2 H    1    7.549942   -4.100300   -5.821362      1.00       1.0079
     162     2 H    1    6.043016   -4.432815   -5.647961      1.00       1.0079
     163     1 O    8   -0.342484    4.965811    2.950829      6.00      15.9994
     164     2 H    1   -0.641824    4.167256    3.471638      1.00       1.0079
     165     2 H    1   -0.675974    4.869938    2.055138      1.00       1.0079
     166     1 O    8   -2.805629   -4.004823    6.223906      6.00      15.9994
     167     2 H    1   -2.385060   -4.632289    6.845556      1.00       1.0079
     168     2 H    1   -2.379735   -3.149823    6.433016      1.00       1.0079
     169     1 O    8   -2.792511   -3.473224    3.461233      6.00      15.9994
     170     2 H    1   -3.112954   -3.862064    4.274613      1.00       1.0079
     171     2 H    1   -3.285609   -4.027145    2.827441      1.00       1.0079
     172     1 O    8    2.486771    4.680362   -3.951121      6.00      15.9994
     173     2 H    1    3.397137    4.508164   -3.629816      1.00       1.0079
     174     2 H    1    1.979071    4.624068   -3.115244      1.00       1.0079
     175     1 O    8    1.659077    0.052314   -3.106919      6.00      15.9994
     176     2 H    1    1.511356   -0.599677   -2.356369      1.00       1.0079
     177     2 H    1    2.506872    0.526419   -3.066152      1.00       1.0079
     178     1 O    8   -1.202305   -8.160348   -6.367070      6.00      15.9994
     179     2 H    1   -0.905516   -9.069055   -6.570527      1.00       1.0079
     180     2 H    1   -2.179810   -8.074002   -6.546491      1.00       1.0079
     181     1 O    8   -0.476107    8.385162    0.598747      6.00      15.9994
     182     2 H    1    0.363244    8.309655    1.105835      1.00       1.0079
     183     2 H    1   -1.285239    8.075385    1.058726      1.00       1.0079
     184     1 O    8    5.906545   -6.798977   -6.600440      6.00      15.9994
     185     2 H    1    5.413015   -7.623317   -6.913788      1.00       1.0079
     186     2 H    1    6.217751   -6.234454   -7.319872      1.00       1.0079
     187     1 O    8   -0.359433   -5.262244    4.670430      6.00      15.9994
     188     2 H    1   -0.415613   -6.098882    4.136748      1.00       1.0079
     189     2 H    1   -1.293113   -5.154797    4.949758      1.00       1.0079
     190     1 O    8   -3.827313   -5.527924    1.763366      6.00      15.9994
     191     2 H    1   -4.138854   -6.362200    2.151380      1.00       1.0079
     192     2 H    1   -4.395567   -5.321694    1.040595      1.00       1.0079




 SCF PARAMETERS         Density guess:                                   RESTART
                        --------------------------------------------------------
                        max_scf:                                              30
                        max_scf_history:                                       0
                        max_diis:                                              4
                        --------------------------------------------------------
                        eps_scf:                                        1.00E-06
                        eps_scf_history:                                0.00E+00
                        eps_diis:                                       1.00E-01
                        eps_eigval:                                     1.00E-05
                        --------------------------------------------------------
                        level_shift [a.u.]:                                 0.00
                        --------------------------------------------------------
                        Outer loop SCF in use 
                        No variables optimised in outer loop
                        eps_scf                                         1.00E-06
                        max_scf                                               10
                        No outer loop optimization
                        step_size                                       5.00E-01

 PW_GRID| Information for grid number                                          1
 PW_GRID| Grid distributed over                                    64 processors
 PW_GRID| Real space group dimensions                                    64    1
 PW_GRID| the grid is blocked:                                                NO
 PW_GRID| Cutoff [a.u.]                                                    200.0
 PW_GRID| spherical cutoff:                                                   NO
 PW_GRID|   Bounds   1            -75      74                Points:         150
 PW_GRID|   Bounds   2            -75      74                Points:         150
 PW_GRID|   Bounds   3            -75      74                Points:         150
 PW_GRID| Volume element (a.u.^3)  0.3831E-02     Volume (a.u.^3)     12928.8946
 PW_GRID| Grid span                                                    FULLSPACE
 PW_GRID|   Distribution                         Average         Max         Min
 PW_GRID|   G-Vectors                            52734.4       52800       52650
 PW_GRID|   G-Rays                                 351.6         352         351
 PW_GRID|   Real Space Points                    52734.4       67500       45000

 PW_GRID| Information for grid number                                          2
 PW_GRID| Grid distributed over                                    64 processors
 PW_GRID| Real space group dimensions                                    64    1
 PW_GRID| the grid is blocked:                                                NO
 PW_GRID| Cutoff [a.u.]                                                     66.7
 PW_GRID| spherical cutoff:                                                   NO
 PW_GRID|   Bounds   1            -45      44                Points:          90
 PW_GRID|   Bounds   2            -45      44                Points:          90
 PW_GRID|   Bounds   3            -45      44                Points:          90
 PW_GRID| Volume element (a.u.^3)  0.1774E-01     Volume (a.u.^3)     12928.8946
 PW_GRID| Grid span                                                    FULLSPACE
 PW_GRID|   Distribution                         Average         Max         Min
 PW_GRID|   G-Vectors                            11390.6       11430       11340
 PW_GRID|   G-Rays                                 126.6         127         126
 PW_GRID|   Real Space Points                    11390.6       16200        8100

 PW_GRID| Information for grid number                                          3
 PW_GRID| Grid distributed over                                    64 processors
 PW_GRID| Real space group dimensions                                     8    8
 PW_GRID| the grid is blocked:                                                NO
 PW_GRID| Cutoff [a.u.]                                                     22.2
 PW_GRID| spherical cutoff:                                                   NO
 PW_GRID|   Bounds   1            -27      26                Points:          54
 PW_GRID|   Bounds   2            -27      26                Points:          54
 PW_GRID|   Bounds   3            -27      26                Points:          54
 PW_GRID| Volume element (a.u.^3)  0.8211E-01     Volume (a.u.^3)     12928.8946
 PW_GRID| Grid span                                                    FULLSPACE
 PW_GRID|   Distribution                         Average         Max         Min
 PW_GRID|   G-Vectors                             2460.4        2592        2322
 PW_GRID|   G-Rays                                  45.6          48          43
 PW_GRID|   Real Space Points                     2460.4        2646        1944

 PW_GRID| Information for grid number                                          4
 PW_GRID| Grid distributed over                                    64 processors
 PW_GRID| Real space group dimensions                                     8    8
 PW_GRID| the grid is blocked:                                                NO
 PW_GRID| Cutoff [a.u.]                                                      7.4
 PW_GRID| spherical cutoff:                                                   NO
 PW_GRID|   Bounds   1            -15      14                Points:          30
 PW_GRID|   Bounds   2            -15      14                Points:          30
 PW_GRID|   Bounds   3            -15      14                Points:          30
 PW_GRID| Volume element (a.u.^3)  0.4788         Volume (a.u.^3)     12928.8946
 PW_GRID| Grid span                                                    FULLSPACE
 PW_GRID|   Distribution                         Average         Max         Min
 PW_GRID|   G-Vectors                              421.9         480         390
 PW_GRID|   G-Rays                                  14.1          16          13
 PW_GRID|   Real Space Points                      421.9         480         270

 POISSON| Solver                                                        PERIODIC
 POISSON| Periodicity                                                        XYZ

 RS_GRID| Information for grid number                                          1
 RS_GRID|   Bounds   1            -75      74                Points:         150
 RS_GRID|   Bounds   2            -75      74                Points:         150
 RS_GRID|   Bounds   3            -75      74                Points:         150
 RS_GRID| Real space distribution over                                  4 groups
 RS_GRID| Real space distribution along direction                              1
 RS_GRID| Border size                                                         19
 RS_GRID| Real space distribution over                                  4 groups
 RS_GRID| Real space distribution along direction                              2
 RS_GRID| Border size                                                         19
 RS_GRID| Real space distribution over                                  4 groups
 RS_GRID| Real space distribution along direction                              3
 RS_GRID| Border size                                                         19
 RS_GRID|   Distribution                         Average         Max         Min
 RS_GRID|   Planes                                  75.5          76          75
 RS_GRID|   Distribution                         Average         Max         Min
 RS_GRID|   Planes                                  75.5          76          75
 RS_GRID|   Distribution                         Average         Max         Min
 RS_GRID|   Planes                                  75.5          76          75

 RS_GRID| Information for grid number                                          2
 RS_GRID|   Bounds   1            -45      44                Points:          90
 RS_GRID|   Bounds   2            -45      44                Points:          90
 RS_GRID|   Bounds   3            -45      44                Points:          90
 RS_GRID| Real space distribution over                                  4 groups
 RS_GRID| Real space distribution along direction                              1
 RS_GRID| Border size                                                         20
 RS_GRID| Real space distribution over                                  4 groups
 RS_GRID| Real space distribution along direction                              2
 RS_GRID| Border size                                                         20
 RS_GRID| Real space distribution over                                  4 groups
 RS_GRID| Real space distribution along direction                              3
 RS_GRID| Border size                                                         20
 RS_GRID|   Distribution                         Average         Max         Min
 RS_GRID|   Planes                                  62.5          63          62
 RS_GRID|   Distribution                         Average         Max         Min
 RS_GRID|   Planes                                  62.5          63          62
 RS_GRID|   Distribution                         Average         Max         Min
 RS_GRID|   Planes                                  62.5          63          62

 RS_GRID| Information for grid number                                          3
 RS_GRID|   Bounds   1            -27      26                Points:          54
 RS_GRID|   Bounds   2            -27      26                Points:          54
 RS_GRID|   Bounds   3            -27      26                Points:          54
 RS_GRID| Real space fully replicated
 RS_GRID| Group size                                                           1

 RS_GRID| Information for grid number                                          4
 RS_GRID|   Bounds   1            -15      14                Points:          30
 RS_GRID|   Bounds   2            -15      14                Points:          30
 RS_GRID|   Bounds   3            -15      14                Points:          30
 RS_GRID| Real space fully replicated
 RS_GRID| Group size                                                           1

 DISTRIBUTION OF THE PARTICLES (ROWS)
              Process row      Number of particles         Number of matrix rows
                        0                       24                            -1
                        1                       24                            -1
                        2                       24                            -1
                        3                       24                            -1
                        4                       24                            -1
                        5                       24                            -1
                        6                       24                            -1
                        7                       24                            -1
                      Sum                      192                            -1

 DISTRIBUTION OF THE PARTICLES (COLUMNS)
              Process col      Number of particles      Number of matrix columns
                        0                       24                            -1
                        1                       24                            -1
                        2                       24                            -1
                        3                       24                            -1
                        4                       24                            -1
                        5                       24                            -1
                        6                       24                            -1
                        7                       24                            -1
                      Sum                      192                            -1

  HFX_INFO| Replica ID:                                                        1
  HFX_INFO| EPS_SCHWARZ:                                                 1.0E-06
  HFX_INFO| EPS_SCHWARZ_FORCES                                           1.0E-06
  HFX_INFO| EPS_STORAGE_SCALING:                                         1.0E-01
  HFX_INFO| NBINS:                                                            64
  HFX_INFO| BLOCK_SIZE:                                                        3
  HFX_INFO| FRACTION:                                               0.5000000000
  HFX_INFO| Interaction Potential:                                     TRUNCATED
  HFX_INFO| Cutoff Radius [angstrom]:                               6.0000000000
  HFX_INFO| NUMBER_OF_SHELLS:                                               AUTO
  HFX_INFO| Number of periodic shells considered:                             -1
  HFX_INFO| Number of periodic cells considered:                              27


 DISTRIBUTION OF THE NEIGHBOR LISTS
              Total number of particle pairs:                              21379
              Total number of matrix elements:                           1231147
              Average number of particle pairs:                              335
              Maximum number of particle pairs:                              370
              Average number of matrix element:                            19237
              Maximum number of matrix elements:                           21624


 DISTRIBUTION OF THE OVERLAP MATRIX
              Number  of non-zero blocks:                                  16652
              Percentage non-zero blocks:                                  89.87
              Average number of blocks per CPU:                              261
              Maximum number of blocks per CPU:                              279
              Average number of matrix elements per CPU:                   15194
              Maximum number of matrix elements per CPU:                   16625

 Number of electrons:                                                        512
 Number of occupied orbitals:                                                256
 Number of molecular orbitals:                                               256

 Number of orbital functions:                                               1472
 Number of independent orbital functions:                                   1472

 Extrapolation method: initial_guess


 SCF WAVEFUNCTION OPTIMIZATION

  ----------------------------------- OT ---------------------------------------

  Allowing for rotations:  F
  Optimizing orbital energies:  F
  Minimizer      : DIIS                : direct inversion
                                         in the iterative subspace
                            using      : -   7 DIIS vectors
                                         - safer DIIS on
  Preconditioner : FULL_SINGLE_INVERSE : inversion of H + eS - 2*(Sc)(c^T*H*c+const)(Sc)^T
  Precond_solver : DEFAULT
  stepsize       :    0.08000000
  energy_gap     :    0.08000000

  eps_taylor     :   0.10000E-15
  max_taylor     :             4

  mixed_precision    : F

  ----------------------------------- OT ---------------------------------------

  Step     Update method      Time    Convergence         Total energy    Change
  ------------------------------------------------------------------------------

  Trace(PS):                                  512.0000000000
  Electronic density on regular grids:       -511.9999999886        0.0000000114
  Core density on regular grids:              511.9999999836       -0.0000000164
  Total charge density on r-space grids:       -0.0000000051
  Total charge density g-space grids:          -0.0000000051


  HFX_MEM_INFO| Est. max. program size before HFX [MB's]:                    153

 *** 12:07:10 WARNING in hfx_energy_potential:integrate_four_center :: The ***
 *** Kohn Sham matrix is not 100% occupied. This may result in uncorrect   ***
 *** Hartree-Fock results. Try to decrease EPS_PGF_ORB and                 ***
 *** EPS_FILTER_MATRIX in the QS section.                                  ***

  HFX_MEM_INFO| Number of cart. primitive ERI's calculated:          16091091976
  HFX_MEM_INFO| Number of sph. ERI's calculated:                      3464714451
  HFX_MEM_INFO| Number of sph. ERI's stored in-core:                  1148714899
  HFX_MEM_INFO| Number of sph. ERI's stored on disk:                           0
  HFX_MEM_INFO| Number of sph. ERI's calculated on the fly:                    0
  HFX_MEM_INFO| Total memory consumption ERI's RAM [MB's]:                  1110
  HFX_MEM_INFO| Whereof max-vals [MB's]:                                      62
  HFX_MEM_INFO| Total compression factor ERI's RAM:                         7.90
  HFX_MEM_INFO| Total memory consumption ERI's disk [MB's]:                    0
  HFX_MEM_INFO| Total compression factor ERI's disk:                        0.00
  HFX_MEM_INFO| Size of density/Fock matrix [MB's]:                           14
  HFX_MEM_INFO| Size of buffers [MB's]:                                        2
  HFX_MEM_INFO| Number of periodic image cells considered:                    27
  HFX_MEM_INFO| Est. max. program size after HFX  [MB's]:                    191

     1 OT DIIS     0.80E-01   16.3     0.00119028     -1101.7474631831 -1.10E+03

  Trace(PS):                                  512.0000000000
  Electronic density on regular grids:       -511.9999999887        0.0000000113
  Core density on regular grids:              511.9999999836       -0.0000000164
  Total charge density on r-space grids:       -0.0000000051
  Total charge density g-space grids:          -0.0000000051

     2 OT DIIS     0.80E-01    1.4     0.00080705     -1101.7832377835 -3.58E-02

  Trace(PS):                                  512.0000000000
  Electronic density on regular grids:       -511.9999999887        0.0000000113
  Core density on regular grids:              511.9999999836       -0.0000000164
  Total charge density on r-space grids:       -0.0000000052
  Total charge density g-space grids:          -0.0000000052

     3 OT DIIS     0.80E-01    1.4     0.00013706     -1101.8143311258 -3.11E-02

  Trace(PS):                                  512.0000000000
  Electronic density on regular grids:       -511.9999999887        0.0000000113
  Core density on regular grids:              511.9999999836       -0.0000000164
  Total charge density on r-space grids:       -0.0000000052
  Total charge density g-space grids:          -0.0000000052

     4 OT DIIS     0.80E-01    1.4     0.00004946     -1101.8151721799 -8.41E-04

  Trace(PS):                                  512.0000000000
  Electronic density on regular grids:       -511.9999999887        0.0000000113
  Core density on regular grids:              511.9999999836       -0.0000000164
  Total charge density on r-space grids:       -0.0000000052
  Total charge density g-space grids:          -0.0000000052

     5 OT DIIS     0.80E-01    1.4     0.00001771     -1101.8152942776 -1.22E-04

  Trace(PS):                                  512.0000000000
  Electronic density on regular grids:       -511.9999999887        0.0000000113
  Core density on regular grids:              511.9999999836       -0.0000000164
  Total charge density on r-space grids:       -0.0000000052
  Total charge density g-space grids:          -0.0000000052

     6 OT DIIS     0.80E-01    1.4     0.00000662     -1101.8153122386 -1.80E-05

  Trace(PS):                                  512.0000000000
  Electronic density on regular grids:       -511.9999999887        0.0000000113
  Core density on regular grids:              511.9999999836       -0.0000000164
  Total charge density on r-space grids:       -0.0000000052
  Total charge density g-space grids:          -0.0000000052

     7 OT DIIS     0.80E-01    1.4     0.00000309     -1101.8153144911 -2.25E-06

  Trace(PS):                                  512.0000000000
  Electronic density on regular grids:       -511.9999999887        0.0000000113
  Core density on regular grids:              511.9999999836       -0.0000000164
  Total charge density on r-space grids:       -0.0000000052
  Total charge density g-space grids:          -0.0000000052

     8 OT DIIS     0.80E-01    1.4     0.00000096     -1101.8153148700 -3.79E-07

  *** SCF run converged in     8 steps ***


  Electronic density on regular grids:       -511.9999999887        0.0000000113
  Core density on regular grids:              511.9999999836       -0.0000000164
  Total charge density on r-space grids:       -0.0000000052
  Total charge density g-space grids:          -0.0000000052

  Overlap energy of the core charge distribution:               0.00000237129466
  Self energy of the core charge distribution:              -2838.21791979121008
  Core Hamiltonian energy:                                    828.77996236271701
  Hartree energy:                                            1179.55983184593788
  Exchange-correlation energy:                               -145.53519510901566
  Hartree-Fock Exchange energy:                              -126.15562956155142
  Dispersion energy:                                           -0.24636698815184

  Total energy:                                             -1101.81531486997937

  outer SCF iter =    1 RMS gradient =   0.96E-06 energy =      -1101.8153148700
  outer SCF loop converged in   1 iterations or    8 steps



 MULLIKEN POPULATION ANALYSIS

 #  Atom  Element  Kind  Atomic population                Net charge
       1     O        1          6.581869                 -0.581869
       2     H        2          0.723640                  0.276360
       3     H        2          0.695831                  0.304169
       4     O        1          6.565900                 -0.565900
       5     H        2          0.734008                  0.265992
       6     H        2          0.671849                  0.328151
       7     O        1          6.555587                 -0.555587
       8     H        2          0.692041                  0.307959
       9     H        2          0.740832                  0.259168
      10     O        1          6.569157                 -0.569157
      11     H        2          0.747572                  0.252428
      12     H        2          0.719327                  0.280673
      13     O        1          6.573743                 -0.573743
      14     H        2          0.706798                  0.293202
      15     H        2          0.723602                  0.276398
      16     O        1          6.677296                 -0.677296
      17     H        2          0.664437                  0.335563
      18     H        2          0.669257                  0.330743
      19     O        1          6.570563                 -0.570563
      20     H        2          0.671954                  0.328046
      21     H        2          0.751233                  0.248767
      22     O        1          6.519051                 -0.519051
      23     H        2          0.760303                  0.239697
      24     H        2          0.719478                  0.280522
      25     O        1          6.559731                 -0.559731
      26     H        2          0.741087                  0.258913
      27     H        2          0.692994                  0.307006
      28     O        1          6.581088                 -0.581088
      29     H        2          0.727508                  0.272492
      30     H        2          0.701547                  0.298453
      31     O        1          6.544446                 -0.544446
      32     H        2          0.717993                  0.282007
      33     H        2          0.754552                  0.245448
      34     O        1          6.674585                 -0.674585
      35     H        2          0.689412                  0.310588
      36     H        2          0.647765                  0.352235
      37     O        1          6.574628                 -0.574628
      38     H        2          0.704328                  0.295672
      39     H        2          0.696864                  0.303136
      40     O        1          6.503325                 -0.503325
      41     H        2          0.709375                  0.290625
      42     H        2          0.781291                  0.218709
      43     O        1          6.660908                 -0.660908
      44     H        2          0.675019                  0.324981
      45     H        2          0.696659                  0.303341
      46     O        1          6.568006                 -0.568006
      47     H        2          0.741360                  0.258640
      48     H        2          0.697461                  0.302539
      49     O        1          6.622650                 -0.622650
      50     H        2          0.673982                  0.326018
      51     H        2          0.710368                  0.289632
      52     O        1          6.598181                 -0.598181
      53     H        2          0.725782                  0.274218
      54     H        2          0.699944                  0.300056
      55     O        1          6.643277                 -0.643277
      56     H        2          0.695153                  0.304847
      57     H        2          0.662366                  0.337634
      58     O        1          6.599584                 -0.599584
      59     H        2          0.702530                  0.297470
      60     H        2          0.692675                  0.307325
      61     O        1          6.636791                 -0.636791
      62     H        2          0.688973                  0.311027
      63     H        2          0.659588                  0.340412
      64     O        1          6.568268                 -0.568268
      65     H        2          0.736002                  0.263998
      66     H        2          0.708036                  0.291964
      67     O        1          6.611725                 -0.611725
      68     H        2          0.702961                  0.297039
      69     H        2          0.696771                  0.303229
      70     O        1          6.541363                 -0.541363
      71     H        2          0.720302                  0.279698
      72     H        2          0.747740                  0.252260
      73     O        1          6.574100                 -0.574100
      74     H        2          0.700811                  0.299189
      75     H        2          0.714662                  0.285338
      76     O        1          6.552406                 -0.552406
      77     H        2          0.700962                  0.299038
      78     H        2          0.723833                  0.276167
      79     O        1          6.584161                 -0.584161
      80     H        2          0.673640                  0.326360
      81     H        2          0.739094                  0.260906
      82     O        1          6.654518                 -0.654518
      83     H        2          0.654547                  0.345453
      84     H        2          0.690097                  0.309903
      85     O        1          6.678408                 -0.678408
      86     H        2          0.682269                  0.317731
      87     H        2          0.623208                  0.376792
      88     O        1          6.630427                 -0.630427
      89     H        2          0.657835                  0.342165
      90     H        2          0.686374                  0.313626
      91     O        1          6.569066                 -0.569066
      92     H        2          0.754157                  0.245843
      93     H        2          0.669965                  0.330035
      94     O        1          6.630924                 -0.630924
      95     H        2          0.699019                  0.300981
      96     H        2          0.666424                  0.333576
      97     O        1          6.619665                 -0.619665
      98     H        2          0.727691                  0.272309
      99     H        2          0.647836                  0.352164
     100     O        1          6.561953                 -0.561953
     101     H        2          0.708601                  0.291399
     102     H        2          0.709483                  0.290517
     103     O        1          6.606618                 -0.606618
     104     H        2          0.733878                  0.266122
     105     H        2          0.638085                  0.361915
     106     O        1          6.569372                 -0.569372
     107     H        2          0.711057                  0.288943
     108     H        2          0.761050                  0.238950
     109     O        1          6.598695                 -0.598695
     110     H        2          0.694682                  0.305318
     111     H        2          0.704293                  0.295707
     112     O        1          6.573669                 -0.573669
     113     H        2          0.690504                  0.309496
     114     H        2          0.752940                  0.247060
     115     O        1          6.634759                 -0.634759
     116     H        2          0.695343                  0.304657
     117     H        2          0.670269                  0.329731
     118     O        1          6.659504                 -0.659504
     119     H        2          0.688136                  0.311864
     120     H        2          0.674351                  0.325649
     121     O        1          6.578643                 -0.578643
     122     H        2          0.728906                  0.271094
     123     H        2          0.694127                  0.305873
     124     O        1          6.547963                 -0.547963
     125     H        2          0.702095                  0.297905
     126     H        2          0.750443                  0.249557
     127     O        1          6.587438                 -0.587438
     128     H        2          0.694917                  0.305083
     129     H        2          0.687625                  0.312375
     130     O        1          6.598870                 -0.598870
     131     H        2          0.693529                  0.306471
     132     H        2          0.716551                  0.283449
     133     O        1          6.623408                 -0.623408
     134     H        2          0.733845                  0.266155
     135     H        2          0.634831                  0.365169
     136     O        1          6.548331                 -0.548331
     137     H        2          0.690059                  0.309941
     138     H        2          0.763560                  0.236440
     139     O        1          6.609276                 -0.609276
     140     H        2          0.693230                  0.306770
     141     H        2          0.700605                  0.299395
     142     O        1          6.567063                 -0.567063
     143     H        2          0.720710                  0.279290
     144     H        2          0.717819                  0.282181
     145     O        1          6.634135                 -0.634135
     146     H        2          0.705998                  0.294002
     147     H        2          0.655488                  0.344512
     148     O        1          6.627480                 -0.627480
     149     H        2          0.710545                  0.289455
     150     H        2          0.677855                  0.322145
     151     O        1          6.519658                 -0.519658
     152     H        2          0.746913                  0.253087
     153     H        2          0.728446                  0.271554
     154     O        1          6.574469                 -0.574469
     155     H        2          0.735995                  0.264005
     156     H        2          0.683187                  0.316813
     157     O        1          6.574884                 -0.574884
     158     H        2          0.701945                  0.298055
     159     H        2          0.708516                  0.291484
     160     O        1          6.522503                 -0.522503
     161     H        2          0.705833                  0.294167
     162     H        2          0.735200                  0.264800
     163     O        1          6.554826                 -0.554826
     164     H        2          0.729906                  0.270094
     165     H        2          0.735847                  0.264153
     166     O        1          6.588347                 -0.588347
     167     H        2          0.716739                  0.283261
     168     H        2          0.701188                  0.298812
     169     O        1          6.540885                 -0.540885
     170     H        2          0.724943                  0.275057
     171     H        2          0.719595                  0.280405
     172     O        1          6.586114                 -0.586114
     173     H        2          0.691024                  0.308976
     174     H        2          0.746989                  0.253011
     175     O        1          6.649409                 -0.649409
     176     H        2          0.671166                  0.328834
     177     H        2          0.678044                  0.321956
     178     O        1          6.612793                 -0.612793
     179     H        2          0.694918                  0.305082
     180     H        2          0.679937                  0.320063
     181     O        1          6.545155                 -0.545155
     182     H        2          0.730715                  0.269285
     183     H        2          0.730592                  0.269408
     184     O        1          6.607252                 -0.607252
     185     H        2          0.700266                  0.299734
     186     H        2          0.707015                  0.292985
     187     O        1          6.566984                 -0.566984
     188     H        2          0.682992                  0.317008
     189     H        2          0.753076                  0.246924
     190     O        1          6.603734                 -0.603734
     191     H        2          0.690856                  0.309144
     192     H        2          0.690187                  0.309813
 # Total charge                512.000000                 -0.000000


 !-----------------------------------------------------------------------------!
                           Hirschfeld Charges

  #Atom  Element  Kind  Ref Charge     Population                     Net charge
      1       O      1       6.000          6.538                         -0.538
      2       H      2       1.000          0.724                          0.276
      3       H      2       1.000          0.738                          0.262
      4       O      1       6.000          6.518                         -0.518
      5       H      2       1.000          0.732                          0.268
      6       H      2       1.000          0.717                          0.283
      7       O      1       6.000          6.502                         -0.502
      8       H      2       1.000          0.741                          0.259
      9       H      2       1.000          0.726                          0.274
     10       O      1       6.000          6.496                         -0.496
     11       H      2       1.000          0.740                          0.260
     12       H      2       1.000          0.741                          0.259
     13       O      1       6.000          6.525                         -0.525
     14       H      2       1.000          0.727                          0.273
     15       H      2       1.000          0.729                          0.271
     16       O      1       6.000          6.538                         -0.538
     17       H      2       1.000          0.728                          0.272
     18       H      2       1.000          0.747                          0.253
     19       O      1       6.000          6.530                         -0.530
     20       H      2       1.000          0.745                          0.255
     21       H      2       1.000          0.737                          0.263
     22       O      1       6.000          6.531                         -0.531
     23       H      2       1.000          0.727                          0.273
     24       H      2       1.000          0.733                          0.267
     25       O      1       6.000          6.530                         -0.530
     26       H      2       1.000          0.737                          0.263
     27       H      2       1.000          0.736                          0.264
     28       O      1       6.000          6.522                         -0.522
     29       H      2       1.000          0.740                          0.260
     30       H      2       1.000          0.731                          0.269
     31       O      1       6.000          6.582                         -0.582
     32       H      2       1.000          0.726                          0.274
     33       H      2       1.000          0.751                          0.249
     34       O      1       6.000          6.549                         -0.549
     35       H      2       1.000          0.735                          0.265
     36       H      2       1.000          0.741                          0.259
     37       O      1       6.000          6.516                         -0.516
     38       H      2       1.000          0.734                          0.266
     39       H      2       1.000          0.731                          0.269
     40       O      1       6.000          6.521                         -0.521
     41       H      2       1.000          0.737                          0.263
     42       H      2       1.000          0.732                          0.268
     43       O      1       6.000          6.528                         -0.528
     44       H      2       1.000          0.733                          0.267
     45       H      2       1.000          0.756                          0.244
     46       O      1       6.000          6.517                         -0.517
     47       H      2       1.000          0.746                          0.254
     48       H      2       1.000          0.747                          0.253
     49       O      1       6.000          6.563                         -0.563
     50       H      2       1.000          0.749                          0.251
     51       H      2       1.000          0.737                          0.263
     52       O      1       6.000          6.558                         -0.558
     53       H      2       1.000          0.743                          0.257
     54       H      2       1.000          0.750                          0.250
     55       O      1       6.000          6.503                         -0.503
     56       H      2       1.000          0.732                          0.268
     57       H      2       1.000          0.739                          0.261
     58       O      1       6.000          6.540                         -0.540
     59       H      2       1.000          0.723                          0.277
     60       H      2       1.000          0.741                          0.259
     61       O      1       6.000          6.491                         -0.491
     62       H      2       1.000          0.729                          0.271
     63       H      2       1.000          0.731                          0.269
     64       O      1       6.000          6.535                         -0.535
     65       H      2       1.000          0.742                          0.258
     66       H      2       1.000          0.744                          0.256
     67       O      1       6.000          6.526                         -0.526
     68       H      2       1.000          0.751                          0.249
     69       H      2       1.000          0.746                          0.254
     70       O      1       6.000          6.540                         -0.540
     71       H      2       1.000          0.748                          0.252
     72       H      2       1.000          0.723                          0.277
     73       O      1       6.000          6.503                         -0.503
     74       H      2       1.000          0.744                          0.256
     75       H      2       1.000          0.742                          0.258
     76       O      1       6.000          6.503                         -0.503
     77       H      2       1.000          0.732                          0.268
     78       H      2       1.000          0.735                          0.265
     79       O      1       6.000          6.506                         -0.506
     80       H      2       1.000          0.736                          0.264
     81       H      2       1.000          0.715                          0.285
     82       O      1       6.000          6.551                         -0.551
     83       H      2       1.000          0.745                          0.255
     84       H      2       1.000          0.729                          0.271
     85       O      1       6.000          6.515                         -0.515
     86       H      2       1.000          0.736                          0.264
     87       H      2       1.000          0.723                          0.277
     88       O      1       6.000          6.500                         -0.500
     89       H      2       1.000          0.728                          0.272
     90       H      2       1.000          0.742                          0.258
     91       O      1       6.000          6.529                         -0.529
     92       H      2       1.000          0.729                          0.271
     93       H      2       1.000          0.744                          0.256
     94       O      1       6.000          6.528                         -0.528
     95       H      2       1.000          0.730                          0.270
     96       H      2       1.000          0.731                          0.269
     97       O      1       6.000          6.532                         -0.532
     98       H      2       1.000          0.721                          0.279
     99       H      2       1.000          0.742                          0.258
    100       O      1       6.000          6.506                         -0.506
    101       H      2       1.000          0.734                          0.266
    102       H      2       1.000          0.732                          0.268
    103       O      1       6.000          6.509                         -0.509
    104       H      2       1.000          0.728                          0.272
    105       H      2       1.000          0.727                          0.273
    106       O      1       6.000          6.546                         -0.546
    107       H      2       1.000          0.743                          0.257
    108       H      2       1.000          0.746                          0.254
    109       O      1       6.000          6.503                         -0.503
    110       H      2       1.000          0.727                          0.273
    111       H      2       1.000          0.728                          0.272
    112       O      1       6.000          6.524                         -0.524
    113       H      2       1.000          0.742                          0.258
[...]
    191       H      2       1.000          0.748                          0.252
    192       H      2       1.000          0.741                          0.259

  Total Charge                                                            -0.000
 !-----------------------------------------------------------------------------!
  
  Eigenvalues of the occupied subspace spin            1
 ---------------------------------------------
      -1.06312672     -1.05995294     -1.05842543     -1.05585565
      -1.05426586     -1.05262568     -1.05160726     -1.05098877
      -1.05064824     -1.04844762     -1.04659999     -1.04459056
      -1.04341227     -1.04220785     -1.04118765     -1.04076507
      -1.03988060     -1.03871408     -1.03642808     -1.03551990
      -1.03480166     -1.03377006     -1.03245780     -1.03173302
      -1.03063637     -1.02960680     -1.02944475     -1.02874720
      -1.02859158     -1.02519439     -1.02447051     -1.02397080
      -1.02352278     -1.02307566     -1.02277847     -1.02164995
      -1.02109650     -1.01958996     -1.01897311     -1.01754996
      -1.01673203     -1.01613800     -1.01504503     -1.01467980
      -1.01328293     -1.01215409     -1.01074440     -1.00996979
      -1.00955828     -1.00861286     -1.00694564     -1.00529870
      -1.00308502     -1.00276894     -1.00021504     -0.99722013
      -0.99611547     -0.99435119     -0.99283990     -0.98997515
      -0.98872188     -0.98542598     -0.97758382     -0.97038604
      -0.52882916     -0.52128380     -0.51851954     -0.51675291
      -0.51642558     -0.51514003     -0.51384179     -0.51324742
      -0.51142809     -0.50983982     -0.50911538     -0.50897512
      -0.50712921     -0.50518747     -0.50491035     -0.50284640
      -0.50223580     -0.50074376     -0.50004925     -0.49996181
      -0.49786473     -0.49709757     -0.49627045     -0.49439948
      -0.49347156     -0.49238478     -0.49129675     -0.49077271
      -0.49043163     -0.48903759     -0.48867068     -0.48662111
      -0.48547898     -0.48476254     -0.48349182     -0.48262649
      -0.48232980     -0.48220845     -0.48165625     -0.48122752
      -0.48056319     -0.47989028     -0.47944052     -0.47876441
      -0.47692345     -0.47552692     -0.47501276     -0.47369452
      -0.47329483     -0.47314335     -0.47121011     -0.47032240
      -0.46923973     -0.46678328     -0.46579248     -0.46088832
      -0.46012146     -0.45792744     -0.45592947     -0.45267592
      -0.45184135     -0.44801462     -0.44523108     -0.42859462
      -0.41215187     -0.40799317     -0.40419824     -0.40350934
      -0.40183794     -0.39909191     -0.39834308     -0.39470581
      -0.39371366     -0.39164569     -0.39010257     -0.38775016
      -0.38322612     -0.38279710     -0.37861763     -0.37687438
      -0.37584889     -0.37529204     -0.37504859     -0.37383001
      -0.37067684     -0.36859564     -0.36542380     -0.36411458
      -0.36301999     -0.36114598     -0.35980116     -0.35765872
      -0.35481530     -0.35371824     -0.35167265     -0.34981468
      -0.34860057     -0.34752823     -0.34739236     -0.34625977
      -0.34394665     -0.34342406     -0.34103616     -0.33999190
      -0.33835064     -0.33759869     -0.33586892     -0.33463181
      -0.33341875     -0.33276185     -0.33048356     -0.32822037
      -0.32690809     -0.32679455     -0.32518681     -0.32303463
      -0.32189519     -0.32133994     -0.32090612     -0.31801642
      -0.31533426     -0.31363052     -0.31218842     -0.31190208
      -0.31027836     -0.30838088     -0.30064461     -0.29356427
      -0.29318461     -0.29173658     -0.28895568     -0.28762842
      -0.28695903     -0.28665870     -0.28603228     -0.28502208
      -0.28344472     -0.28287083     -0.28252928     -0.28158861
      -0.28054093     -0.27965121     -0.27848466     -0.27837456
      -0.27798179     -0.27759942     -0.27602512     -0.27551146
      -0.27452086     -0.27414275     -0.27398420     -0.27360172
      -0.27333429     -0.27219810     -0.27191917     -0.27142831
      -0.27108000     -0.27076053     -0.26974274     -0.26931841
      -0.26891277     -0.26841348     -0.26749674     -0.26599022
      -0.26502917     -0.26463355     -0.26418413     -0.26380022
      -0.26304291     -0.26200826     -0.26179229     -0.26077577
      -0.26019999     -0.25960596     -0.25874543     -0.25761533
      -0.25720350     -0.25680859     -0.25573762     -0.25512273
      -0.25472503     -0.25332707     -0.25273025     -0.25128549
      -0.24902493     -0.24717546     -0.24546354     -0.24462354
      -0.24287137     -0.24111949     -0.23601605     -0.23403011
 Fermi Energy [eV] :   -6.368283
  
  Lowest Eigenvalues of the unoccupied subspace spin            1
 -----------------------------------------------------
  Reached convergence in          151  iterations 
       0.13852672      0.18549191      0.19313969      0.19649023
  
 HOMO - LUMO gap [eV] :   10.137787

 ENERGY| Total FORCE_EVAL ( QS ) energy (a.u.):            -1101.815314869979375


 -------------------------------------------------------------------------------
 -                                                                             -
 -                                DBCSR STATISTICS                             -
 -                                                                             -
 -------------------------------------------------------------------------------
 COUNTER                                      CPU                  ACC      ACC%
 number of processed stacks                263166                    0       0.0
 matmuls inhomo. stacks                         0                    0       0.0
 matmuls total                           18260518                    0       0.0
 flops   4 x    4 x    4                    97024                    0       0.0
 flops  36 x    4 x   36                   787968                    0       0.0
 flops  36 x    4 x   32                  4902912                    0       0.0
 flops  32 x    4 x   36                  4902912                    0       0.0
 flops   4 x    4 x  184                 13895680                    0       0.0
 flops  36 x   36 x  184                 15261696                    0       0.0
 flops 184 x    4 x    4                 21385216                    0       0.0
 flops  36 x    4 x  184                 32219136                    0       0.0
 flops 184 x    4 x   36                 32219136                    0       0.0
 flops  32 x    4 x   32                 32604160                    0       0.0
 flops   5 x   32 x   32                 94371840                    0       0.0
 flops  32 x   36 x  184                 94961664                    0       0.0
 flops  36 x   32 x  184                 94961664                    0       0.0
 flops  13 x   32 x   32                122683392                    0       0.0
 flops  32 x    4 x  184                212533248                    0       0.0
 flops 184 x    4 x   32                212533248                    0       0.0
 flops 184 x   36 x  184                624033792                    0       0.0
 flops   5 x    4 x    5                913754800                    0       0.0
 flops   5 x    5 x   32                970252800                    0       0.0
 flops  13 x    4 x    5               1169203360                    0       0.0
 flops   5 x    4 x   13               1169203360                    0       0.0
 flops  13 x    5 x   32               1230760960                    0       0.0
 flops   5 x   13 x   32               1235553280                    0       0.0
 flops 184 x    4 x  184               1317404672                    0       0.0
 flops  13 x    4 x   13               1486759248                    0       0.0
 flops  13 x   13 x   32               1599643136                    0       0.0
 flops  32 x   32 x   32               2516582400                    0       0.0
 flops   5 x   32 x    5               4762240000                    0       0.0
 flops  13 x   32 x    5               6093568000                    0       0.0
 flops   5 x   32 x   13               6093568000                    0       0.0
 flops 184 x   32 x   32               7331643392                    0       0.0
 flops  32 x   32 x  184               7452229632                    0       0.0
 flops  13 x   32 x   13               7748582400                    0       0.0
 flops 184 x   32 x  184              13867417600                    0       0.0
 flops total                          68572721728                    0       0.0
 marketing flops                      78677987328
 -------------------------------------------------------------------------------

 -------------------------------------------------------------------------------
 ----                             MULTIGRID INFO                            ----
 -------------------------------------------------------------------------------
 count for grid        1:          38071          cutoff [a.u.]          200.00
 count for grid        2:          57438          cutoff [a.u.]           66.67
 count for grid        3:          57763          cutoff [a.u.]           22.22
 count for grid        4:          11599          cutoff [a.u.]            7.41
 total gridlevel count  :         164871

 -------------------------------------------------------------------------------
 -                                                                             -
 -                         MESSAGE PASSING PERFORMANCE                         -
 -                                                                             -
 -------------------------------------------------------------------------------

 ROUTINE             CALLS  TOT TIME [s]  AVE VOLUME [Bytes]  PERFORMANCE [MB/s]
 MP_Group                5         0.000
 MP_Bcast             3452         0.033              77491.             8184.49
 MP_Allreduce         7435         1.754                178.                0.76
 MP_Gather               4         0.001               1792.                7.32
 MP_Sync               159         2.265
 MP_Alltoall          7876         3.063
 MP_ISendRecv         3276         0.006              49114.            26567.72
 MP_Wait            191598         1.027
 MP_comm_split         112         0.016
 MP_ISend            85070         0.147              29789.            17285.99
 MP_IRecv            85070         0.095              29614.            26554.57
 MP_Recv                 7         0.000             376832.             6126.15
 MP_Memory           54836        11.821
 -------------------------------------------------------------------------------


 -------------------------------------------------------------------------------
 -                                                                             -
 -                           R E F E R E N C E S                               -
 -                                                                             -
 -------------------------------------------------------------------------------
 
 CP2K version 2.6, the CP2K developers group (2014).
 CP2K is freely available from http://www.cp2k.org/ .

 Borstnik, U; VandeVondele, J; Weber, V; Hutter, J. 
 PARALLEL COMPUTING, 40 (5-6), 47-58 (2014). 
 Sparse matrix multiplication: The distributed block-compressed sparse
 row library.
 http://dx.doi.org/10.1016/j.parco.2014.03.012


 Hutter, J; Iannuzzi, M; Schiffmann, F; VandeVondele, J. 
 WILEY INTERDISCIPLINARY REVIEWS-COMPUTATIONAL MOLECULAR SCIENCE, 4 (1), 15-25 (2014). 
 CP2K: atomistic simulations of condensed matter systems.
 http://dx.doi.org/10.1002/wcms.1159


 Grimme, S; Ehrlich, S; Goerigk, L. 
 JOURNAL OF COMPUTATIONAL CHEMISTRY, 32, 1456 (2011). 
 Effect of the damping function in dispersion corrected density functional theory.
 http://dx.doi.org/10.1002/jcc.21759


 Grimme, S; Antony, J; Ehrlich, S; Krieg, H. 
 JOURNAL OF CHEMICAL PHYSICS, 132 (15), 154104 (2010). 
 A consistent and accurate ab initio parametrization of density
 functional dispersion correction (DFT-D) for the 94 elements H-Pu.
 http://dx.doi.org/10.1063/1.3382344


 Guidon, M; Hutter, J; VandeVondele, J. 
 JOURNAL OF CHEMICAL THEORY AND COMPUTATION, 5 (11), 3010-3021 (2009). 
 Robust Periodic Hartree-Fock Exchange for Large-Scale Simulations Using
 Gaussian Basis Sets.
 http://dx.doi.org/10.1021/ct900494g


 Guidon, M; Schiffmann, F; Hutter, J; VandeVondele, J. 
 JOURNAL OF CHEMICAL PHYSICS, 128 (21), 214104 (2008). 
 Ab initio molecular dynamics using hybrid density functionals.
 http://dx.doi.org/10.1063/1.2931945


 Krack, M. 
 THEORETICAL CHEMISTRY ACCOUNTS, 114 (1-3), 145-152 (2005). 
 Pseudopotentials for H to Kr optimized for gradient-corrected
 exchange-correlation functionals.
 http://dx.doi.org/10.1007/s00214-005-0655-y


 VandeVondele, J; Krack, M; Mohamed, F; Parrinello, M; Chassaing, T;
 Hutter, J. COMPUTER PHYSICS COMMUNICATIONS, 167 (2), 103-128 (2005). 
 QUICKSTEP: Fast and accurate density functional calculations using a
 mixed Gaussian and plane waves approach.
 http://dx.doi.org/10.1016/j.cpc.2004.12.014


 Frigo, M; Johnson, SG. 
 PROCEEDINGS OF THE IEEE, 93 (2), 216-231 (2005). 
 The design and implementation of FFTW3.
 http://dx.doi.org/10.1109/JPROC.2004.840301


 VandeVondele, J; Hutter, J. 
 JOURNAL OF CHEMICAL PHYSICS, 118 (10), 4365-4369 (2003). 
 An efficient orbital transformation method for electronic structure
 calculations.
 http://dx.doi.org/10.1063/1.1543154


 Hartwigsen, C; Goedecker, S; Hutter, J. 
 PHYSICAL REVIEW B, 58 (7), 3641-3662 (1998). 
 Relativistic separable dual-space Gaussian pseudopotentials from H to Rn.
 http://dx.doi.org/10.1103/PhysRevB.58.3641


 Lippert, G; Hutter, J; Parrinello, M. 
 MOLECULAR PHYSICS, 92 (3), 477-487 (1997). 
 A hybrid Gaussian and plane wave density functional scheme.
 http://dx.doi.org/10.1080/002689797170220


 Perdew, JP; Burke, K; Ernzerhof, M. 
 PHYSICAL REVIEW LETTERS, 77 (18), 3865-3868 (1996). 
 Generalized gradient approximation made simple.
 http://dx.doi.org/10.1103/PhysRevLett.77.3865


 Goedecker, S; Teter, M; Hutter, J. 
 PHYSICAL REVIEW B, 54 (3), 1703-1710 (1996). 
 Separable dual-space Gaussian pseudopotentials.
 http://dx.doi.org/10.1103/PhysRevB.54.1703


 -------------------------------------------------------------------------------
 -                                                                             -
 -                                T I M I N G                                  -
 -                                                                             -
 -------------------------------------------------------------------------------
 SUBROUTINE                       CALLS  ASD         SELF TIME        TOTAL TIME
                                MAXIMUM       AVERAGE  MAXIMUM  AVERAGE  MAXIMUM
 CP2K                                 1  1.0    0.024    0.030   45.783   45.790
 qs_energies_scf                      1  2.0    0.000    0.000   45.534   45.534
 scf_env_do_scf                       1  3.0    0.000    0.000   26.323   26.323
 qs_ks_update_qs_env                  9  5.0    0.000    0.000   23.757   23.759
 rebuild_ks_matrix                    8  6.0    0.000    0.000   23.755   23.757
 qs_ks_build_kohn_sham_matrix         8  7.0    0.002    0.003   23.755   23.757
 hfx_ks_matrix                        8  8.0    0.000    0.000   21.883   21.884
 integrate_four_center                8  9.0    2.589    3.233   21.879   21.880
 integrate_four_center_main           8 10.0    0.004    0.005   17.481   19.297
 integrate_four_center_bin          536 11.0   17.476   19.293   17.476   19.293
 dbcsr_mm_cannon_multiply          2342  8.0    1.048    1.270   18.537   18.727
 scf_post_calculation_gpw             1  3.0    0.000    0.000   17.921   17.921
 make_lumo                            1  4.0    0.000    0.000   17.802   17.802
 ot_eigensolver                       1  5.0    0.006    0.007   17.788   17.788
 init_scf_loop                        1  4.0    0.000    0.000   16.208   16.208
 scf_env_do_scf_inner_loop            8  4.0    0.000    0.001   10.040   10.114
 ot_mini                            159  6.1    0.002    0.002    9.558    9.564
 cannon_multiply_low               2342  9.0    0.831    1.031    8.241    8.639
 qs_ot_get_derivative                84  7.1    0.002    0.002    8.570    8.587
 dbcsr_make_images                 4684  9.0    0.012    0.013    6.517    6.684
 make_images                       4684 10.0    0.167    0.202    6.505    6.673
 dbcsr_data_new                   80273 10.9    0.170    0.200    4.829    5.401
 internal_data_allocate           48490 12.0    4.662    5.206    4.662    5.206
 qs_ot_get_p                        164  6.0    0.002    0.002    3.999    4.084
 qs_ot_get_derivative_diag           52  8.0    0.004    0.004    4.013    4.023
 dbcsr_create_new                 34371  9.8    0.161    0.181    3.677    3.868
 dbcsr_data_release              143378 11.2    0.150    0.173    3.148    3.366
 internal_data_deallocate         48490 12.2    3.001    3.222    3.001    3.222
 setup_buffer_matrices             4684 10.0    1.640    1.746    2.508    2.749
 qs_ot_get_orbitals                 163  6.0    0.003    0.003    2.513    2.524
 dbcsr_destroy                    28570  9.2    0.081    0.090    2.284    2.454
 qs_ot_get_derivative_taylor         32  8.2    0.003    0.003    2.442    2.446
 buffer_matrices_ensure_size       4684 10.0    1.882    2.312    1.882    2.312
 fft_wrap_pw1pw2                    142  9.6    0.002    0.003    2.212    2.221
 fft_wrap_pw1pw2_200                 91 10.7    0.063    0.080    2.103    2.110
 fft3d_ps                           142 11.6    0.297    0.387    2.073    2.093
 qs_ot_p2m_diag                     110  7.0    0.003    0.004    1.866    1.882
 cannon_multiply_low_metrocomm1   18736 10.0    0.814    1.709    0.814    1.709
 make_images_sizes                 4684 11.0    1.399    1.669    1.399    1.669
 dbcsr_make_images_dense           3998  9.3    0.067    0.084    1.531    1.665
 integrate_four_center_load           8 10.0    0.000    0.000    1.504    1.505
 hfx_load_balance                     1 11.0    0.001    0.001    1.504    1.505
 qs_scf_loop_do_ot                    8  5.0    0.000    0.000    1.406    1.408
 yz_to_x                             51 12.4    1.351    1.396    1.351    1.396
 ot_scf_mini                          8  6.0    0.000    0.001    1.324    1.325
 cannon_multiply_low_metrocomm3   18736 10.0    0.794    1.200    0.794    1.200
 qs_energies_init_hamiltonians        1  3.0    0.000    0.000    1.100    1.100
 hfx_load_balance_dist                1 12.0    0.530    1.058    0.530    1.058
 qs_env_update_s_mstruct              1  4.0    0.000    0.000    1.055    1.055
 dbcsr_special_finalize            4684 11.0    0.013    0.016    0.902    1.033
 calculate_rho_core                   1  5.0    0.008    0.017    1.032    1.032
 dbcsr_switch_data_area           19462 10.9    0.028    0.032    0.884    1.004
 quick_finalize                    5290 11.8    0.022    0.027    0.878    1.002
 dbcsr_make_dense_low              5986 10.3    0.050    0.058    0.740    0.971
 apply_preconditioner_dbcsr          89  7.2    0.000    0.000    0.928    0.961
 apply_single                        89  8.2    0.001    0.001    0.928    0.961
 -------------------------------------------------------------------------------

  **** **** ******  **  PROGRAM ENDED AT                 2015-03-10 12:07:54.307
 ***** ** ***  *** **   PROGRAM RAN ON                                      n272
 **    ****   ******    PROGRAM RAN BY                                     bja39
 ***** **    ** ** **   PROGRAM PROCESS ID                                 13327
  **** **  *******  **  PROGRAM STOPPED IN /home/dlambrecht/bja39/cp2k/hfx/hfx50
