 DBCSR| Multiplication driver                                                SMM
 DBCSR| Multrec recursion limit                                              512
 DBCSR| Multiplication stack size                                           1000
 DBCSR| Multiplication size stacks                                             3
 DBCSR| Use subcommunicators                                                   T
 DBCSR| Use MPI combined types                                                 F
 DBCSR| Use MPI memory allocation                                              T
 DBCSR| Use Communication thread                                               T
 DBCSR| Communication thread load                                             87


  **** **** ******  **  PROGRAM STARTED AT               2015-03-10 13:27:25.270
 ***** ** ***  *** **   PROGRAM STARTED ON                                  n255
 **    ****   ******    PROGRAM STARTED BY                                 bja39
 ***** **    ** ** **   PROGRAM PROCESS ID                                 97844
  **** **  *******  **  PROGRAM STARTED IN        /home/dlambrecht/bja39/cp2k/ls

 CP2K| version string:                                          CP2K version 2.6
 CP2K| source code revision number:                                  git:9520686
 CP2K| is freely available from                             http://www.cp2k.org/
 CP2K| Program compiled at                          Fri Feb 27 09:44:54 EST 2015
 CP2K| Program compiled on                            login0a.frank.sam.pitt.edu
 CP2K| Program compiled for                                                Frank
 CP2K| Input file name                                            2d_polymer.inp
 
 GLOBAL| Force Environment number                                              1
 GLOBAL| Basis set file name                                           BASIS_SET
 GLOBAL| Geminal file name                                         BASIS_GEMINAL
 GLOBAL| Potential file name                                           POTENTIAL
 GLOBAL| MM Potential file name                                     MM_POTENTIAL
 GLOBAL| Coordinate file name                                      __STD_INPUT__
 GLOBAL| Method name                                                        CP2K
 GLOBAL| Project name                                                 2d_polymer
 GLOBAL| Preferred FFT library                                             FFTW3
 GLOBAL| Preferred diagonalization lib.                                       SL
 GLOBAL| Run type                                                         ENERGY
 GLOBAL| All-to-all communication in single precision                          F
 GLOBAL| FFTs using library dependent lengths                                  F
 GLOBAL| Global print level                                               MEDIUM
 GLOBAL| Total number of message passing processes                            64
 GLOBAL| Number of threads for this process                                    1
 GLOBAL| This output is from process                                           0

 MEMORY| system memory details [Kb]
 MEMORY|                        rank 0           min           max       average
 MEMORY| MemTotal             32989296      32989296      32989296      32989296
 MEMORY| MemFree               4540256       4501940       7558040       5734442
 MEMORY| Buffers                425068        421480        896956        636529
 MEMORY| Cached               13713640      13713640      19138908      16403287
 MEMORY| Slab                 12944732       4528672      12944732       8846241
 MEMORY| SReclaimable         11570020       3748812      11570020       7781658
 MEMORY| MemLikelyFree        30248984      30210668      30867240      30555916


 *** Fundamental physical constants (SI units) ***

 *** Literature: B. J. Mohr and B. N. Taylor,
 ***             CODATA recommended values of the fundamental physical
 ***             constants: 2006, Web Version 5.1
 ***             http://physics.nist.gov/constants

 Speed of light in vacuum [m/s]                             2.99792458000000E+08
 Magnetic constant or permeability of vacuum [N/A**2]       1.25663706143592E-06
 Electric constant or permittivity of vacuum [F/m]          8.85418781762039E-12
 Planck constant (h) [J*s]                                  6.62606896000000E-34
 Planck constant (h-bar) [J*s]                              1.05457162825177E-34
 Elementary charge [C]                                      1.60217648700000E-19
 Electron mass [kg]                                         9.10938215000000E-31
 Electron g factor [ ]                                     -2.00231930436220E+00
 Proton mass [kg]                                           1.67262163700000E-27
 Fine-structure constant                                    7.29735253760000E-03
 Rydberg constant [1/m]                                     1.09737315685270E+07
 Avogadro constant [1/mol]                                  6.02214179000000E+23
 Boltzmann constant [J/K]                                   1.38065040000000E-23
 Atomic mass unit [kg]                                      1.66053878200000E-27
 Bohr radius [m]                                            5.29177208590000E-11

 *** Conversion factors ***

 [u] -> [a.u.]                                              1.82288848426455E+03
 [Angstrom] -> [Bohr] = [a.u.]                              1.88972613288564E+00
 [a.u.] = [Bohr] -> [Angstrom]                              5.29177208590000E-01
 [a.u.] -> [s]                                              2.41888432650478E-17
 [a.u.] -> [fs]                                             2.41888432650478E-02
 [a.u.] -> [J]                                              4.35974393937059E-18
 [a.u.] -> [N]                                              8.23872205491840E-08
 [a.u.] -> [K]                                              3.15774647902944E+05
 [a.u.] -> [kJ/mol]                                         2.62549961709828E+03
 [a.u.] -> [kcal/mol]                                       6.27509468713739E+02
 [a.u.] -> [Pa]                                             2.94210107994716E+13
 [a.u.] -> [bar]                                            2.94210107994716E+08
 [a.u.] -> [atm]                                            2.90362800883016E+08
 [a.u.] -> [eV]                                             2.72113838565563E+01
 [a.u.] -> [Hz]                                             6.57968392072181E+15
 [a.u.] -> [1/cm] (wave numbers)                            2.19474631370540E+05
 [a.u./Bohr**2] -> [1/cm]                                   5.14048714338585E+03
 

 CELL_TOP| Volume [angstrom^3]:                                        28886.562
 CELL_TOP| Vector a [angstrom    23.578     0.000     0.000    |a| =      23.578
 CELL_TOP| Vector b [angstrom     0.000    40.838     0.000    |b| =      40.838
 CELL_TOP| Vector c [angstrom     0.000     0.000    30.000    |c| =      30.000
 CELL_TOP| Angle (b,c), alpha [degree]:                                   90.000
 CELL_TOP| Angle (a,c), beta  [degree]:                                   90.000
 CELL_TOP| Angle (a,b), gamma [degree]:                                   90.000
 CELL_TOP| Numerically orthorhombic:                                         YES
 
 GENERATE|  Preliminary Number of Bonds generated:                             0
 GENERATE|  Achieved consistency in connectivity generation.

 CELL| Volume [angstrom^3]:                                            28886.562
 CELL| Vector a [angstrom]:      23.578     0.000     0.000    |a| =      23.578
 CELL| Vector b [angstrom]:       0.000    40.838     0.000    |b| =      40.838
 CELL| Vector c [angstrom]:       0.000     0.000    30.000    |c| =      30.000
 CELL| Angle (b,c), alpha [degree]:                                       90.000
 CELL| Angle (a,c), beta  [degree]:                                       90.000
 CELL| Angle (a,b), gamma [degree]:                                       90.000
 CELL| Numerically orthorhombic:                                             YES

 CELL_REF| Volume [angstrom^3]:                                        28886.562
 CELL_REF| Vector a [angstrom    23.578     0.000     0.000    |a| =      23.578
 CELL_REF| Vector b [angstrom     0.000    40.838     0.000    |b| =      40.838
 CELL_REF| Vector c [angstrom     0.000     0.000    30.000    |c| =      30.000
 CELL_REF| Angle (b,c), alpha [degree]:                                   90.000
 CELL_REF| Angle (a,c), beta  [degree]:                                   90.000
 CELL_REF| Angle (a,b), gamma [degree]:                                   90.000
 CELL_REF| Numerically orthorhombic:                                         YES


              #####   #####        # ######  ####### ####### ######   
             #     # #     #      #  #     # #          #    #     #  
             #     # #           #   #     # #          #    #     #  
             #     #  #####     #    #     # #####      #    ######   
             #   # #       #   #     #     # #          #    #     #  
             #    #  #     #  #      #     # #          #    #     #  
              #### #  #####  #       ######  #          #    ######   
                                                                      
                                    Version 0.2                       
                               J. Hutter and T. Heine                 
                                                                      


 EWALD| Summation is done by:                                               SPME
 EWALD| Alpha parameter [       ANGSTROM^-1]                              0.3500
 EWALD| Real Space Cutoff [          ANGSTROM]                            9.6398
 EWALD| G-space max. Miller index                         40        40        40
 EWALD| Spline interpolation order                                             5

 PW_GRID| Information for grid number                                          1
 PW_GRID| Grid distributed over                                    64 processors
 PW_GRID| Real space group dimensions                                    64    1
 PW_GRID| the grid is blocked:                                                NO
 PW_GRID| Cutoff [a.u.]                                                      1.2
 PW_GRID| spherical cutoff:                                                  YES
 PW_GRID| Grid points within cutoff                                         6058
 PW_GRID|   Bounds   1            -20      19                Points:          40
 PW_GRID|   Bounds   2            -20      19                Points:          40
 PW_GRID|   Bounds   3            -20      19                Points:          40
 PW_GRID| Volume element (a.u.^3)   3.046         Volume (a.u.^3)    194936.1846
 PW_GRID| Grid span                                                    HALFSPACE
 PW_GRID|   Distribution                         Average         Max         Min
 PW_GRID|   G-Vectors                               94.7         111          76
 PW_GRID|   G-Rays                                  12.9          14          12
 PW_GRID|   Real Space Points                     1000.0        1600           0

 RS_GRID| Information for grid number                                          1
 RS_GRID|   Bounds   1            -20      19                Points:          40
 RS_GRID|   Bounds   2            -20      19                Points:          40
 RS_GRID|   Bounds   3            -20      19                Points:          40
 RS_GRID| Real space distribution over                                  4 groups
 RS_GRID| Real space distribution along direction                              1
 RS_GRID| Border size                                                          3
 RS_GRID| Real space distribution over                                  4 groups
 RS_GRID| Real space distribution along direction                              2
 RS_GRID| Border size                                                          3
 RS_GRID| Real space distribution over                                  4 groups
 RS_GRID| Real space distribution along direction                              3
 RS_GRID| Border size                                                          3
 RS_GRID|   Distribution                         Average         Max         Min
 RS_GRID|   Planes                                  16.0          16          16
 RS_GRID|   Distribution                         Average         Max         Min
 RS_GRID|   Planes                                  16.0          16          16
 RS_GRID|   Distribution                         Average         Max         Min
 RS_GRID|   Planes                                  16.0          16          16


 ATOMIC KIND INFORMATION

  1. Atomic kind: H                                     Number of atoms:     312

     Potential information for                                          Hydrogen

       Description:                                       All-electron potential
                                          Krack, Parrinello, PCCP 2, 2105 (2000)

       Gaussian exponent of the core charge distribution:              12.500000
       Electronic configuration (s p d ...):                       1   0   0   0

  2. Atomic kind: C                                     Number of atoms:     468

     Potential information for                                            Carbon

       Description:                                       All-electron potential
                                          Krack, Parrinello, PCCP 2, 2105 (2000)

       Gaussian exponent of the core charge distribution:               3.373250
       Electronic configuration (s p d ...):                       4   2   0   0

  3. Atomic kind: O                                     Number of atoms:      12

     Potential information for                                            Oxygen

       Description:                                       All-electron potential
                                          Krack, Parrinello, PCCP 2, 2105 (2000)

       Gaussian exponent of the core charge distribution:               3.753049
       Electronic configuration (s p d ...):                       4   4   0   0


 MOLECULE KIND INFORMATION


 All atoms are their own molecule, skipping detailed information


 TOTAL NUMBERS AND MAXIMUM NUMBERS

  Total number of            - Atomic kinds:                                   3
                             - Atoms:                                        792
                             - Shell sets:                                     0
                             - Shells:                                      1272
                             - Primitive Cartesian functions:                  0
                             - Cartesian basis functions:                   2232
                             - Spherical basis functions:                   2232

  Maximum angular momentum of the orbital basis functions:                     1


 MODULE QUICKSTEP:  ATOMIC COORDINATES IN angstrom

  Atom  Kind  Element       X           Y           Z          Z(eff)       Mass

       1     1 H    1   -4.022487  -37.658526    2.224644      1.00       1.0079
       2     1 H    1   -4.047166  -39.697864    3.646003      1.00       1.0079
       3     2 C    6   -4.121272  -37.573641    3.302885      4.00      12.0107
       4     1 H    1   -6.284126  -33.727514    1.649629      1.00       1.0079
       5     2 C    6   -4.142074  -38.716875    4.101385      4.00      12.0107
       6     2 C    6   -4.296962  -35.043818    3.059413      4.00      12.0107
       7     2 C    6   -4.226435  -36.312202    3.888973      4.00      12.0107
       8     2 C    6   -6.375490  -33.597583    2.722538      4.00      12.0107
       9     2 C    6   -5.448654  -34.198228    3.577638      4.00      12.0107
      10     1 H    1   -8.111579  -32.324338    2.579261      1.00       1.0079
      11     2 C    6   -4.320385  -38.601463    5.477325      4.00      12.0107
      12     2 C    6   -7.407368  -32.813850    3.245212      4.00      12.0107
      13     1 H    1   -4.381796  -39.498261    6.089182      1.00       1.0079
      14     2 C    6   -4.369820  -36.169220    5.286472      4.00      12.0107
      15     2 C    6   -4.460996  -37.334817    6.087189      4.00      12.0107
      16     2 C    6   -5.546960  -34.045048    4.974431      4.00      12.0107
      17     2 C    6   -4.482907  -34.743982    5.828862      4.00      12.0107
      18     2 C    6   -7.530704  -32.654046    4.622861      4.00      12.0107
      19     2 C    6   -6.617500  -33.278491    5.499698      4.00      12.0107
      20     1 H    1   -8.340509  -32.055094    5.036083      1.00       1.0079
      21     2 C    6   -4.749252  -37.299622    7.492975      4.00      12.0107
      22     2 C    6   -6.778101  -33.130653    6.906883      4.00      12.0107
      23     2 C    6   -5.057346  -37.423192    8.669543      4.00      12.0107
      24     2 C    6   -6.938129  -33.035805    8.112009      4.00      12.0107
      25     1 H    1   -5.459365  -34.412690    9.829517      1.00       1.0079
      26     2 C    6   -7.084693  -33.016330    9.527647      4.00      12.0107
      27     1 H    1   -8.752908  -31.657260    9.528677      1.00       1.0079
      28     2 C    6   -6.231127  -33.813051   10.311308      4.00      12.0107
      29     2 C    6   -8.082122  -32.243432   10.151414      4.00      12.0107
      30     1 H    1  -11.339478  -28.766778    9.863330      1.00       1.0079
      31     2 C    6   11.741754  -26.690523   10.041537      4.00      12.0107
      32     2 C    6  -11.387211  -27.908597   10.528483      4.00      12.0107
      33     1 H    1   11.212746  -24.663769   10.560150      1.00       1.0079
      34     1 H    1   -9.163030  -29.789566   10.823512      1.00       1.0079
      35     2 C    6   -6.376314  -33.861885   11.697610      4.00      12.0107
      36     2 C    6   11.630136  -25.601418   10.924036      4.00      12.0107
      37     1 H    1   -4.685223  -35.185217   11.954791      1.00       1.0079
      38     1 H    1   -6.100683  -35.575427   12.948287      1.00       1.0079
      39     2 C    6   -8.240817  -32.267104   11.547005      4.00      12.0107
      40     2 C    6   -5.508201  -34.745762   12.542341      4.00      12.0107
      41     2 C    6   -9.633968  -30.173931   11.725583      4.00      12.0107
      42     2 C    6   -7.377446  -33.085105   12.299536      4.00      12.0107
      43     2 C    6  -10.968895  -28.033526   11.864974      4.00      12.0107
      44     2 C    6   -9.274888  -31.440579   12.226281      4.00      12.0107
      45     2 C    6  -11.564211  -25.691842   12.245675      4.00      12.0107
      46     1 H    1   -5.081338  -34.184112   13.383464      1.00       1.0079
      47     2 C    6  -10.540627  -29.346542   12.407815      4.00      12.0107
      48     1 H    1   -7.470167  -33.103294   13.382634      1.00       1.0079
      49     2 C    6  -11.044490  -26.908311   12.702855      4.00      12.0107
      50     1 H    1  -11.373179  -23.583353   12.655631      1.00       1.0079
      51     1 H    1   10.903815  -24.378019   13.473469      1.00       1.0079
      52     2 C    6  -11.689155  -24.509485   13.162416      4.00      12.0107
      53     2 C    6   -9.911043  -31.893516   13.397475      4.00      12.0107
      54     1 H    1  -10.696533  -26.984463   13.731480      1.00       1.0079
      55     2 C    6  -11.090233  -29.803015   13.620093      4.00      12.0107
      56     1 H    1   -9.696952  -32.896310   13.760145      1.00       1.0079
      57     1 H    1  -11.076660  -24.633909   14.069629      1.00       1.0079
      58     2 C    6  -10.820344  -31.089023   14.098270      4.00      12.0107
      59     1 H    1  -11.769166  -29.169284   14.187411      1.00       1.0079
      60     1 H    1   -2.100426  -26.947157   17.160622      1.00       1.0079
      61     2 C    6  -11.494177  -31.609575   15.344483      4.00      12.0107
      62     3 O    8  -10.547514  -31.722269   16.402515      6.00      15.9994
      63     1 H    1   11.308932  -30.939091   15.610823      1.00       1.0079
      64     1 H    1   11.704026  -32.598797   15.113926      1.00       1.0079
      65     1 H    1   -4.825976  -34.780172    6.876197      1.00       1.0079
      66     1 H    1   -4.511051  -35.324593    2.011482      1.00       1.0079
      67     1 H    1   -0.781542   -5.086301    2.224613      1.00       1.0079
      68     1 H    1    1.000271   -4.087980    3.645997      1.00       1.0079
      69     2 C    6   -0.805802   -5.214132    3.302854      4.00      12.0107
      70     1 H    1   -3.061572   -9.006739    1.649603      1.00       1.0079
      71     2 C    6    0.196554   -4.660497    4.101369      4.00      12.0107
      72     2 C    6   -2.913015   -6.630885    3.059392      4.00      12.0107
      73     2 C    6   -1.847732   -5.935748    3.888994      4.00      12.0107
      74     2 C    6   -3.128649   -9.150665    2.722523      4.00      12.0107
      75     2 C    6   -3.070889   -8.049183    3.577615      4.00      12.0107
      76     1 H    1   -3.365347  -11.287969    2.579244      1.00       1.0079
      77     2 C    6    0.185594   -4.872324    5.477317      4.00      12.0107
      78     2 C    6   -3.292706  -10.434503    3.245178      4.00      12.0107
      79     1 H    1    0.994415   -4.477010    6.089188      1.00       1.0079
      80     2 C    6   -1.900076   -6.131197    5.286481      4.00      12.0107
      81     2 C    6   -0.843143   -5.627180    6.087181      4.00      12.0107
      82     2 C    6   -3.154688   -8.210747    4.974424      4.00      12.0107
      83     2 C    6   -3.080209   -6.941548    5.828894      4.00      12.0107
      84     2 C    6   -3.369738  -10.621030    4.622837      4.00      12.0107
      85     2 C    6   -3.284444   -9.519439    5.499683      4.00      12.0107
      86     1 H    1   -3.484460  -11.620500    5.036097      1.00       1.0079
      87     2 C    6   -0.729571   -5.893951    7.492953      4.00      12.0107
      88     2 C    6   -3.332486   -9.732127    6.906873      4.00      12.0107
      89     2 C    6   -0.468313   -6.098482    8.669538      4.00      12.0107
      90     2 C    6   -3.334783   -9.917918    8.112017      4.00      12.0107
      91     1 H    1   -2.879410   -7.951188    9.829508      1.00       1.0079
      92     2 C    6   -3.278333  -10.054331    9.527674      4.00      12.0107
      93     1 H    1   -3.623508  -12.175876    9.528633      1.00       1.0079
      94     2 C    6   -3.013882   -8.918112   10.311321      4.00      12.0107
      95     2 C    6   -3.450294  -11.302966   10.151423      4.00      12.0107
      96     1 H    1   -4.838179  -15.856872    9.863338      1.00       1.0079
      97     2 C    6   -6.357618  -17.382651   10.041509      4.00      12.0107
      98     2 C    6   -5.558933  -16.327211   10.528498      4.00      12.0107
      99     1 H    1   -7.851673  -18.853312   10.560145      1.00       1.0079
     100     1 H    1   -5.039011  -13.464181   10.823457      1.00       1.0079
     101     2 C    6   -2.898843   -9.019216   11.697633      4.00      12.0107
     102     2 C    6   -7.246804  -18.023692   10.924034      4.00      12.0107
     103     1 H    1   -2.596192   -6.895797   11.954771      1.00       1.0079
     104     1 H    1   -1.549883   -7.924225   12.948280      1.00       1.0079
     105     2 C    6   -3.350402  -11.428247   11.547030      4.00      12.0107
     106     2 C    6   -2.566020   -7.826878   12.542369      4.00      12.0107
     107     2 C    6   -4.470029  -13.679052   11.725549      4.00      12.0107
     108     2 C    6   -3.072336  -10.272963   12.299560      4.00      12.0107
     109     2 C    6   -5.659724  -15.903109   11.864976      4.00      12.0107
     110     2 C    6   -3.550486  -12.735382   12.226272      4.00      12.0107
     111     2 C    6   -7.393914  -17.588560   12.245685      4.00      12.0107
     112     1 H    1   -3.266787   -7.738751   13.383497      1.00       1.0079
     113     2 C    6   -4.734574  -14.876430   12.407842      4.00      12.0107
     114     1 H    1   -3.010184  -10.344042   13.382663      1.00       1.0079
     115     2 C    6   -6.598223  -16.531135   12.702859      4.00      12.0107
     116     1 H    1   -9.318893  -18.477681   12.655620      1.00       1.0079
     117     1 H    1   -7.945123  -19.263176   13.473474      1.00       1.0079
     118     2 C    6   -8.357332  -18.287746   13.162441      4.00      12.0107
     119     2 C    6   -2.839422  -13.058736   13.397511      4.00      12.0107
     120     1 H    1   -6.706135  -16.192304   13.731488      1.00       1.0079
     121     2 C    6   -4.063707  -15.123322   13.620114      4.00      12.0107
     122     1 H    1   -2.076341  -12.372270   13.760160      1.00       1.0079
     123     1 H    1   -8.555602  -17.696078   14.069633      1.00       1.0079
     124     2 C    6   -3.082829  -14.246994   14.098235      4.00      12.0107
     125     1 H    1   -4.274089  -16.027054   14.187446      1.00       1.0079
     126     1 H    1  -11.036596   -8.780615   17.160626      1.00       1.0079
     127     2 C    6   -2.294232  -14.569155   15.344453      4.00      12.0107
     128     3 O    8   -2.669726  -13.694480   16.402525      6.00      15.9994
     129     1 H    1   -2.454861  -15.632462   15.610855      1.00       1.0079
     130     1 H    1   -1.212311  -14.461137   15.113934      1.00       1.0079
     131     1 H    1   -2.877271   -7.220018    6.876230      1.00       1.0079
     132     1 H    1   -2.562352   -6.675591    2.011449      1.00       1.0079
     133     1 H    1    4.804032  -39.009627    2.224630      1.00       1.0079
     134     1 H    1    3.046922  -37.968629    3.646010      1.00       1.0079
     135     2 C    6    4.927078  -38.966699    3.302869      4.00      12.0107
     136     1 H    1    9.345692  -39.020240    1.649620      1.00       1.0079
     137     2 C    6    3.945535  -38.377103    4.101380      4.00      12.0107
     138     2 C    6    7.209975  -40.079752    3.059411      4.00      12.0107
     139     2 C    6    6.074158  -39.506545    3.889013      4.00      12.0107
     140     2 C    6    9.504077  -39.006244    2.722540      4.00      12.0107
     141     2 C    6    8.519540  -39.507099    3.577671      4.00      12.0107
     142     1 H    1   11.476906  -38.142208    2.579282      1.00       1.0079
     143     2 C    6    4.134807  -38.280694    5.477326      4.00      12.0107
     144     2 C    6   10.700075  -38.506180    3.245218      4.00      12.0107
     145     1 H    1    3.387381  -37.779231    6.089179      1.00       1.0079
     146     2 C    6    6.269946  -39.454025    5.286493      4.00      12.0107
     147     2 C    6    5.304140  -38.792457    6.087198      4.00      12.0107
     148     2 C    6    8.701607  -39.498682    4.974462      4.00      12.0107
     149     2 C    6    7.563136  -40.068948    5.828843      4.00      12.0107
     150     2 C    6   10.900427  -38.479487    4.622865      4.00      12.0107
     151     2 C    6    9.901975  -38.956530    5.499701      4.00      12.0107
     152     1 H    1  -11.820425  -38.078936    5.036100      1.00       1.0079
     153     2 C    6    5.478802  -38.560882    7.492960      4.00      12.0107
     154     2 C    6   10.110589  -38.891724    6.906855      4.00      12.0107
     155     2 C    6    5.525647  -38.232808    8.669533      4.00      12.0107
     156     2 C    6   10.272946  -38.800829    8.111965      4.00      12.0107
     157     1 H    1    8.338815  -39.390531    9.829516      1.00       1.0079
     158     2 C    6   10.363061  -38.683811    9.527618      4.00      12.0107
     159     1 H    1  -11.268998  -37.921391    9.528684      1.00       1.0079
     160     2 C    6    9.244998  -39.023300   10.311318      4.00      12.0107
     161     2 C    6   11.532404  -38.208144   10.151414      4.00      12.0107
     162     1 H    1   -7.467730  -37.130798    9.863338      1.00       1.0079
     163     2 C    6   -5.384134  -37.681324   10.041522      4.00      12.0107
     164     2 C    6   -6.699248  -37.518633   10.528486      4.00      12.0107
     165     1 H    1   -3.361066  -38.237440   10.560140      1.00       1.0079
     166     1 H    1   -9.443414  -38.500770   10.823482      1.00       1.0079
     167     2 C    6    9.275201  -38.873378   11.697629      4.00      12.0107
     168     2 C    6   -4.383326  -38.129338   10.924044      4.00      12.0107
     169     1 H    1    7.281420  -39.673420   11.954774      1.00       1.0079
     170     1 H    1    7.650580  -38.254833   12.948301      1.00       1.0079
     171     2 C    6   11.591216  -38.059107   11.547005      4.00      12.0107
     172     2 C    6    8.074195  -39.181805   12.542362      4.00      12.0107
     173     2 C    6   -9.541440  -37.901525   11.725572      4.00      12.0107
     174     2 C    6   10.449737  -38.396382   12.299523      4.00      12.0107
     175     2 C    6   -7.016829  -37.817820   11.864953      4.00      12.0107
     176     2 C    6  -10.820025  -37.578509   12.226253      4.00      12.0107
     177     2 C    6   -4.687345  -38.474104   12.245667      4.00      12.0107
     178     1 H    1    8.348106  -39.831629   13.383465      1.00       1.0079
     179     2 C    6   -8.370235  -37.531517   12.407848      4.00      12.0107
     180     1 H    1   10.480319  -38.307169   13.382627      1.00       1.0079
     181     2 C    6   -6.002670  -38.315009   12.702862      4.00      12.0107
     182     1 H    1   -2.953349  -39.693435   12.655625      1.00       1.0079
     183     1 H    1   -2.958685  -38.113250   13.473482      1.00       1.0079
     184     2 C    6   -3.598959  -38.957241   13.162419      4.00      12.0107
     185     2 C    6  -10.894984  -36.802237   13.397501      4.00      12.0107
     186     1 H    1   -6.242712  -38.577721   13.731483      1.00       1.0079
     187     2 C    6   -8.491483  -36.828174   13.620100      4.00      12.0107
     188     1 H    1   11.773304  -36.485861   13.760171      1.00       1.0079
     189     1 H    1   -4.013193  -39.424467   14.069619      1.00       1.0079
     190     2 C    6   -9.742276  -36.418501   14.098248      4.00      12.0107
     191     1 H    1   -7.602132  -36.558160   14.187417      1.00       1.0079
     192     1 H    1  -10.508421   -5.149486   17.160569      1.00       1.0079
     193     2 C    6   -9.857007  -35.575741   15.344454      4.00      12.0107
     194     3 O    8  -10.428144  -36.337630   16.402527      6.00      15.9994
     195     1 H    1   -8.854104  -35.182905   15.610841      1.00       1.0079
     196     1 H    1  -10.491737  -34.694592   15.113916      1.00       1.0079
     197     1 H    1    7.703255  -39.754294    6.876165      1.00       1.0079
     198     1 H    1    7.073418  -39.754302    2.011469      1.00       1.0079
     199     1 H    1    4.804024   -1.867599    2.224635      1.00       1.0079
     200     1 H    1    3.046910   -2.908596    3.646005      1.00       1.0079
     201     2 C    6    4.927085   -1.910556    3.302871      4.00      12.0107
     202     1 H    1    9.345693   -1.857011    1.649624      1.00       1.0079
     203     2 C    6    3.945531   -2.500150    4.101374      4.00      12.0107
     204     2 C    6    7.209963   -0.797471    3.059405      4.00      12.0107
     205     2 C    6    6.074177   -1.370731    3.889000      4.00      12.0107
     206     2 C    6    9.504097   -1.870985    2.722547      4.00      12.0107
     207     2 C    6    8.519505   -1.370177    3.577660      4.00      12.0107
     208     1 H    1   11.476921   -2.735037    2.579272      1.00       1.0079
     209     2 C    6    4.134808   -2.596578    5.477319      4.00      12.0107
     210     2 C    6   10.700073   -2.371088    3.245214      4.00      12.0107
     211     1 H    1    3.387386   -3.098045    6.089181      1.00       1.0079
     212     2 C    6    6.269906   -1.423179    5.286481      4.00      12.0107
     213     2 C    6    5.304138   -2.084786    6.087180      4.00      12.0107
     214     2 C    6    8.701616   -1.378541    4.974441      4.00      12.0107
     215     2 C    6    7.563127   -0.808338    5.828858      4.00      12.0107
     216     2 C    6   10.900418   -2.397768    4.622871      4.00      12.0107
     217     2 C    6    9.901979   -1.920693    5.499692      4.00      12.0107
     218     1 H    1  -11.820424   -2.798329    5.036096      1.00       1.0079
     219     2 C    6    5.478803   -2.316354    7.492941      4.00      12.0107
     220     2 C    6   10.110599   -1.985551    6.906849      4.00      12.0107
     221     2 C    6    5.525655   -2.644435    8.669519      4.00      12.0107
     222     2 C    6   10.272945   -2.076451    8.111968      4.00      12.0107
     223     1 H    1    8.338791   -1.486708    9.829499      1.00       1.0079
     224     2 C    6   10.363061   -2.193436    9.527635      4.00      12.0107
     225     1 H    1  -11.268968   -2.955851    9.528664      1.00       1.0079
     226     2 C    6    9.244978   -1.853919   10.311329      4.00      12.0107
     227     2 C    6   11.532421   -2.669086   10.151399      4.00      12.0107
     228     1 H    1   -7.467763   -3.746427    9.863314      1.00       1.0079
     229     2 C    6   -5.384128   -3.195918   10.041537      4.00      12.0107
     230     2 C    6   -6.699263   -3.358594   10.528466      4.00      12.0107
     231     1 H    1   -3.361032   -2.639817   10.560134      1.00       1.0079
     232     1 H    1   -9.443411   -2.376495   10.823513      1.00       1.0079
     233     2 C    6    9.275180   -2.003909   11.697621      4.00      12.0107
     234     2 C    6   -4.383307   -2.747877   10.924042      4.00      12.0107
     235     1 H    1    7.281406   -1.203807   11.954779      1.00       1.0079
     236     1 H    1    7.650590   -2.622419   12.948279      1.00       1.0079
     237     2 C    6   11.591190   -2.818119   11.547016      4.00      12.0107
     238     2 C    6    8.074200   -1.695427   12.542355      4.00      12.0107
     239     2 C    6   -9.541446   -2.975741   11.725588      4.00      12.0107
     240     2 C    6   10.449748   -2.480822   12.299552      4.00      12.0107
     241     2 C    6   -7.016800   -3.059399   11.864952      4.00      12.0107
     242     2 C    6  -10.820044   -3.298698   12.226281      4.00      12.0107
     243     2 C    6   -4.687349   -2.403131   12.245672      4.00      12.0107
     244     1 H    1    8.348105   -1.045638   13.383484      1.00       1.0079
     245     2 C    6   -8.370215   -3.345723   12.407826      4.00      12.0107
     246     1 H    1   10.480323   -2.570084   13.382651      1.00       1.0079
     247     2 C    6   -6.002674   -2.562190   12.702888      4.00      12.0107
     248     1 H    1   -2.953348   -1.183802   12.655629      1.00       1.0079
     249     1 H    1   -2.958687   -2.763981   13.473488      1.00       1.0079
     250     2 C    6   -3.598960   -1.919980   13.162414      4.00      12.0107
     251     2 C    6  -10.894929   -4.075029   13.397489      4.00      12.0107
     252     1 H    1   -6.242722   -2.299477   13.731514      1.00       1.0079
     253     2 C    6   -8.491523   -4.049062   13.620089      4.00      12.0107
     254     1 H    1   11.773349   -4.391372   13.760140      1.00       1.0079
     255     1 H    1   -4.013185   -1.452748   14.069612      1.00       1.0079
     256     2 C    6   -9.742264   -4.458809   14.098283      4.00      12.0107
     257     1 H    1   -7.602173   -4.319071   14.187387      1.00       1.0079
     258     1 H    1  -10.508392  -35.727928   17.160328      1.00       1.0079
     259     2 C    6   -9.857025   -5.301497   15.344522      4.00      12.0107
     260     3 O    8  -10.428177   -4.539301   16.402340      6.00      15.9994
     261     1 H    1   -8.854075   -5.694340   15.610792      1.00       1.0079
     262     1 H    1  -10.491711   -6.182683   15.113877      1.00       1.0079
     263     1 H    1    7.703256   -1.122936    6.876198      1.00       1.0079
     264     1 H    1    7.073418   -1.122950    2.011476      1.00       1.0079
     265     1 H    1   -4.022484   -3.218697    2.224626      1.00       1.0079
     266     1 H    1   -4.047167   -1.179389    3.646006      1.00       1.0079
     267     2 C    6   -4.121264   -3.303578    3.302861      4.00      12.0107
     268     1 H    1   -6.284124   -7.149720    1.649601      1.00       1.0079
     269     2 C    6   -4.142076   -2.160357    4.101371      4.00      12.0107
     270     2 C    6   -4.296946   -5.833397    3.059392      4.00      12.0107
     271     2 C    6   -4.226433   -4.565017    3.888989      4.00      12.0107
     272     2 C    6   -6.375461   -7.279662    2.722521      4.00      12.0107
     273     2 C    6   -5.448626   -6.678999    3.577628      4.00      12.0107
     274     1 H    1   -8.111597   -8.552914    2.579254      1.00       1.0079
     275     2 C    6   -4.320381   -2.275739    5.477313      4.00      12.0107
     276     2 C    6   -7.407374   -8.063389    3.245193      4.00      12.0107
     277     1 H    1   -4.381796   -1.378961    6.089183      1.00       1.0079
     278     2 C    6   -4.369830   -4.707976    5.286487      4.00      12.0107
     279     2 C    6   -4.460999   -3.542375    6.087193      4.00      12.0107
     280     2 C    6   -5.546918   -6.832225    4.974417      4.00      12.0107
     281     2 C    6   -4.482908   -6.133253    5.828872      4.00      12.0107
     282     2 C    6   -7.530712   -8.223234    4.622859      4.00      12.0107
     283     2 C    6   -6.617534   -7.598725    5.499681      4.00      12.0107
     284     1 H    1   -8.340556   -8.822142    5.036101      1.00       1.0079
     285     2 C    6   -4.749244   -3.577606    7.492965      4.00      12.0107
     286     2 C    6   -6.778083   -7.746601    6.906859      4.00      12.0107
     287     2 C    6   -5.057351   -3.454048    8.669538      4.00      12.0107
     288     2 C    6   -6.938147   -7.841483    8.111996      4.00      12.0107
     289     1 H    1   -5.459340   -6.464499    9.829498      1.00       1.0079
     290     2 C    6   -7.084707   -7.860896    9.527663      4.00      12.0107
     291     1 H    1   -8.752959   -9.220026    9.528641      1.00       1.0079
     292     2 C    6   -6.231076   -7.064189   10.311330      4.00      12.0107
     293     2 C    6   -8.082143   -8.633840   10.151390      4.00      12.0107
     294     1 H    1  -11.339472  -12.110418    9.863290      1.00       1.0079
     295     2 C    6   11.741736  -14.186741   10.041539      4.00      12.0107
     296     2 C    6  -11.387214  -12.968628   10.528449      4.00      12.0107
     297     1 H    1   11.212729  -16.213530   10.560131      1.00       1.0079
     298     1 H    1   -9.163034  -11.087692   10.823513      1.00       1.0079
     299     2 C    6   -6.376326   -7.015313   11.697638      4.00      12.0107
     300     2 C    6   11.630117  -15.275872   10.924043      4.00      12.0107
     301     1 H    1   -4.685211   -5.691995   11.954771      1.00       1.0079
     302     1 H    1   -6.100706   -5.301797   12.948280      1.00       1.0079
     303     2 C    6   -8.240779   -8.610133   11.547000      4.00      12.0107
     304     2 C    6   -5.508172   -6.131453   12.542369      4.00      12.0107
     305     2 C    6   -9.633972  -10.703321   11.725593      4.00      12.0107
     306     2 C    6   -7.377417   -7.792147   12.299563      4.00      12.0107
     307     2 C    6  -10.968880  -12.843758   11.864963      4.00      12.0107
     308     2 C    6   -9.274900   -9.436647   12.226261      4.00      12.0107
     309     2 C    6  -11.564204  -15.185421   12.245688      4.00      12.0107
     310     1 H    1   -5.081324   -6.693119   13.383497      1.00       1.0079
     311     2 C    6  -10.540630  -11.530733   12.407817      4.00      12.0107
     312     1 H    1   -7.470170   -7.773960   13.382674      1.00       1.0079
     313     2 C    6  -11.044482  -13.968953   12.702903      4.00      12.0107
     314     1 H    1  -11.373176  -17.293911   12.655624      1.00       1.0079
     315     1 H    1   10.903804  -16.499235   13.473472      1.00       1.0079
     316     2 C    6  -11.689155  -16.367781   13.162427      4.00      12.0107
     317     2 C    6   -9.911050   -8.983754   13.397483      4.00      12.0107
     318     1 H    1  -10.696518  -13.892784   13.731540      1.00       1.0079
     319     2 C    6  -11.090219  -11.074197   13.620090      4.00      12.0107
     320     1 H    1   -9.696949   -7.980952   13.760137      1.00       1.0079
     321     1 H    1  -11.076652  -16.243342   14.069642      1.00       1.0079
     322     2 C    6  -10.820350   -9.788216   14.098321      4.00      12.0107
     323     1 H    1  -11.769155  -11.707905   14.187387      1.00       1.0079
     324     1 H    1   -2.100634  -13.930020   17.160341      1.00       1.0079
     325     2 C    6  -11.494254   -9.267674   15.344455      4.00      12.0107
     326     3 O    8  -10.547320   -9.155077   16.402288      6.00      15.9994
     327     1 H    1   11.308914   -9.938206   15.610842      1.00       1.0079
     328     1 H    1   11.704015   -8.278440   15.113907      1.00       1.0079
     329     1 H    1   -4.825987   -6.097058    6.876222      1.00       1.0079
     330     1 H    1   -4.511062   -5.552643    2.011456      1.00       1.0079
     331     1 H    1   -0.781539  -35.790909    2.224632      1.00       1.0079
     332     1 H    1    1.000264  -36.789245    3.645999      1.00       1.0079
     333     2 C    6   -0.805810  -35.663082    3.302870      4.00      12.0107
     334     1 H    1   -3.061570  -31.870505    1.649628      1.00       1.0079
     335     2 C    6    0.196557  -36.216712    4.101366      4.00      12.0107
     336     2 C    6   -2.913011  -34.246333    3.059421      4.00      12.0107
     337     2 C    6   -1.847707  -34.941457    3.889002      4.00      12.0107
     338     2 C    6   -3.128654  -31.726582    2.722533      4.00      12.0107
     339     2 C    6   -3.070890  -32.828052    3.577620      4.00      12.0107
     340     1 H    1   -3.365345  -29.589319    2.579262      1.00       1.0079
     341     2 C    6    0.185592  -36.004892    5.477303      4.00      12.0107
     342     2 C    6   -3.292707  -30.442760    3.245227      4.00      12.0107
     343     1 H    1    0.994396  -36.400230    6.089178      1.00       1.0079
     344     2 C    6   -1.900063  -34.746051    5.286492      4.00      12.0107
     345     2 C    6   -0.843145  -35.250057    6.087218      4.00      12.0107
     346     2 C    6   -3.154709  -32.666491    4.974423      4.00      12.0107
     347     2 C    6   -3.080200  -33.935680    5.828862      4.00      12.0107
     348     2 C    6   -3.369720  -30.256245    4.622872      4.00      12.0107
     349     2 C    6   -3.284444  -31.357819    5.499698      4.00      12.0107
     350     1 H    1   -3.484457  -29.256780    5.036080      1.00       1.0079
     351     2 C    6   -0.729576  -34.983267    7.492985      4.00      12.0107
     352     2 C    6   -3.332490  -31.145085    6.906881      4.00      12.0107
     353     2 C    6   -0.468301  -34.778763    8.669549      4.00      12.0107
     354     2 C    6   -3.334774  -30.959275    8.112001      4.00      12.0107
     355     1 H    1   -2.879419  -32.925980    9.829516      1.00       1.0079
     356     2 C    6   -3.278347  -30.822916    9.527652      4.00      12.0107
     357     1 H    1   -3.623508  -28.701382    9.528664      1.00       1.0079
     358     2 C    6   -3.013867  -31.959109   10.311330      4.00      12.0107
     359     2 C    6   -3.450284  -29.574336   10.151372      4.00      12.0107
     360     1 H    1   -4.838161  -25.020360    9.863328      1.00       1.0079
     361     2 C    6   -6.357587  -23.494565   10.041538      4.00      12.0107
     362     2 C    6   -5.558938  -24.550016   10.528467      4.00      12.0107
     363     1 H    1   -7.851676  -22.023942   10.560146      1.00       1.0079
     364     1 H    1   -5.038968  -27.413053   10.823525      1.00       1.0079
     365     2 C    6   -2.898836  -31.858019   11.697607      4.00      12.0107
     366     2 C    6   -7.246817  -22.853564   10.924037      4.00      12.0107
     367     1 H    1   -2.596191  -33.981430   11.954783      1.00       1.0079
     368     1 H    1   -1.549896  -32.953018   12.948277      1.00       1.0079
     369     2 C    6   -3.350416  -29.449033   11.546997      4.00      12.0107
     370     2 C    6   -2.566025  -33.050346   12.542364      4.00      12.0107
     371     2 C    6   -4.469994  -27.198194   11.725595      4.00      12.0107
     372     2 C    6   -3.072335  -30.604283   12.299542      4.00      12.0107
     373     2 C    6   -5.659727  -24.974077   11.864968      4.00      12.0107
     374     2 C    6   -3.550469  -28.141895   12.226256      4.00      12.0107
     375     2 C    6   -7.393918  -23.288685   12.245687      4.00      12.0107
     376     1 H    1   -3.266781  -33.138484   13.383488      1.00       1.0079
     377     2 C    6   -4.734605  -26.000806   12.407813      4.00      12.0107
     378     1 H    1   -3.010190  -30.533207   13.382644      1.00       1.0079
     379     2 C    6   -6.598238  -24.346107   12.702865      4.00      12.0107
     380     1 H    1   -9.318884  -22.399519   12.655624      1.00       1.0079
     381     1 H    1   -7.945105  -21.614027   13.473484      1.00       1.0079
     382     2 C    6   -8.357323  -22.589476   13.162431      4.00      12.0107
     383     2 C    6   -2.839473  -27.818461   13.397493      4.00      12.0107
     384     1 H    1   -6.706143  -24.684954   13.731489      1.00       1.0079
     385     2 C    6   -4.063698  -25.754000   13.620071      4.00      12.0107
     386     1 H    1   -2.076410  -28.504926   13.760121      1.00       1.0079
     387     1 H    1   -8.555608  -23.181143   14.069615      1.00       1.0079
     388     2 C    6   -3.082807  -26.630240   14.098270      4.00      12.0107
     389     1 H    1   -4.274068  -24.850279   14.187393      1.00       1.0079
     390     1 H    1  -11.036446  -32.096445   17.160296      1.00       1.0079
     391     2 C    6   -2.294218  -26.308052   15.344458      4.00      12.0107
     392     3 O    8   -2.669965  -27.182857   16.402307      6.00      15.9994
     393     1 H    1   -2.454853  -25.244740   15.610803      1.00       1.0079
     394     1 H    1   -1.212310  -26.416111   15.113909      1.00       1.0079
     395     1 H    1   -2.877283  -33.657257    6.876202      1.00       1.0079
     396     1 H    1   -2.562366  -34.201663    2.011480      1.00       1.0079
     397     1 H    1    7.800230  -17.219943    2.224641      1.00       1.0079
     398     1 H    1    7.775541  -19.259240    3.646001      1.00       1.0079
     399     2 C    6    7.701435  -17.135024    3.302882      4.00      12.0107
     400     1 H    1    5.538583  -13.288903    1.649614      1.00       1.0079
     401     2 C    6    7.680634  -18.278271    4.101380      4.00      12.0107
     402     2 C    6    7.525760  -14.605214    3.059380      4.00      12.0107
     403     2 C    6    7.596266  -15.873596    3.889001      4.00      12.0107
     404     2 C    6    5.447272  -13.158961    2.722541      4.00      12.0107
     405     2 C    6    6.374095  -13.759630    3.577677      4.00      12.0107
     406     1 H    1    3.711124  -11.885737    2.579280      1.00       1.0079
     407     2 C    6    7.502324  -18.162871    5.477330      4.00      12.0107
     408     2 C    6    4.415349  -12.375253    3.245213      4.00      12.0107
     409     1 H    1    7.440915  -19.059670    6.089182      1.00       1.0079
     410     2 C    6    7.452871  -15.730656    5.286483      4.00      12.0107
     411     2 C    6    7.361722  -16.896235    6.087194      4.00      12.0107
     412     2 C    6    6.275831  -13.606367    4.974446      4.00      12.0107
     413     2 C    6    7.339816  -14.305379    5.828849      4.00      12.0107
     414     2 C    6    4.292032  -12.215389    4.622877      4.00      12.0107
     415     2 C    6    5.205160  -12.839945    5.499680      4.00      12.0107
     416     1 H    1    3.482165  -11.616504    5.036105      1.00       1.0079
     417     2 C    6    7.073466  -16.861021    7.492942      4.00      12.0107
     418     2 C    6    5.044607  -12.692005    6.906822      4.00      12.0107
     419     2 C    6    6.765380  -16.984560    8.669516      4.00      12.0107
     420     2 C    6    4.884585  -12.597134    8.111953      4.00      12.0107
     421     1 H    1    6.363343  -13.974124    9.829509      1.00       1.0079
     422     2 C    6    4.737990  -12.577736    9.527625      4.00      12.0107
     423     1 H    1    3.069776  -11.218591    9.528655      1.00       1.0079
     424     2 C    6    5.591627  -13.374415   10.311324      4.00      12.0107
     425     2 C    6    3.740601  -11.804781   10.151406      4.00      12.0107
     426     1 H    1    0.483198   -8.328188    9.863311      1.00       1.0079
     427     2 C    6   -0.080958   -6.251891   10.041545      4.00      12.0107
     428     2 C    6    0.435467   -7.470007   10.528482      4.00      12.0107
     429     1 H    1   -0.609981   -4.225111   10.560136      1.00       1.0079
     430     1 H    1    2.659700   -9.350917   10.823464      1.00       1.0079
     431     2 C    6    5.446387  -13.423325   11.697628      4.00      12.0107
     432     2 C    6   -0.192607   -5.162775   10.924046      4.00      12.0107
     433     1 H    1    7.137495  -14.746639   11.954768      1.00       1.0079
     434     1 H    1    5.722001  -15.136842   12.948274      1.00       1.0079
     435     2 C    6    3.581932  -11.828461   11.547019      4.00      12.0107
     436     2 C    6    6.314542  -14.307180   12.542381      4.00      12.0107
     437     2 C    6    2.188773   -9.735281   11.725566      4.00      12.0107
     438     2 C    6    4.445289  -12.646470   12.299544      4.00      12.0107
     439     2 C    6    0.853835   -7.594898   11.864972      4.00      12.0107
     440     2 C    6    2.547788  -11.001951   12.226267      4.00      12.0107
     441     2 C    6    0.258534   -5.253200   12.245678      4.00      12.0107
     442     1 H    1    6.741394  -13.745518   13.383510      1.00       1.0079
     443     2 C    6    1.282100   -8.907927   12.407838      4.00      12.0107
     444     1 H    1    4.352556  -12.664623   13.382654      1.00       1.0079
     445     2 C    6    0.778195   -6.469679   12.702878      4.00      12.0107
     446     1 H    1    0.449523   -3.144705   12.655625      1.00       1.0079
     447     1 H    1   -0.918901   -3.939420   13.473490      1.00       1.0079
     448     2 C    6    0.133558   -4.070847   13.162421      4.00      12.0107
     449     2 C    6    1.911696  -11.454907   13.397496      4.00      12.0107
     450     1 H    1    1.126162   -6.545826   13.731506      1.00       1.0079
     451     2 C    6    0.732457   -9.364386   13.620123      4.00      12.0107
     452     1 H    1    2.125773  -12.457711   13.760167      1.00       1.0079
     453     1 H    1    0.746082   -4.195290   14.069617      1.00       1.0079
     454     2 C    6    1.002373  -10.650389   14.098250      4.00      12.0107
     455     1 H    1    0.053492   -8.730646   14.187428      1.00       1.0079
     456     1 H    1    9.722285   -6.508511   17.160632      1.00       1.0079
     457     2 C    6    0.328532  -11.170923   15.344496      4.00      12.0107
     458     3 O    8    1.275224  -11.283727   16.402519      6.00      15.9994
     459     1 H    1   -0.513786  -10.500437   15.610858      1.00       1.0079
     460     1 H    1   -0.118675  -12.160117   15.113929      1.00       1.0079
     461     1 H    1    6.996739  -14.341556    6.876177      1.00       1.0079
     462     1 H    1    7.311639  -14.885986    2.011451      1.00       1.0079
     463     1 H    1   11.041174  -25.524926    2.224637      1.00       1.0079
     464     1 H    1  -10.822470  -24.526584    3.646000      1.00       1.0079
     465     2 C    6   11.016900  -25.652760    3.302877      4.00      12.0107
     466     1 H    1    8.761143  -29.445364    1.649643      1.00       1.0079
     467     2 C    6  -11.626176  -25.099104    4.101385      4.00      12.0107
     468     2 C    6    8.909681  -27.069503    3.059386      4.00      12.0107
     469     2 C    6    9.974984  -26.374383    3.888986      4.00      12.0107
     470     2 C    6    8.694063  -29.589267    2.722559      4.00      12.0107
     471     2 C    6    8.751831  -28.487795    3.577659      4.00      12.0107
     472     1 H    1    8.457364  -31.726547    2.579273      1.00       1.0079
     473     2 C    6  -11.637131  -25.310950    5.477322      4.00      12.0107
     474     2 C    6    8.530009  -30.873077    3.245201      4.00      12.0107
     475     1 H    1  -10.828300  -24.915603    6.089175      1.00       1.0079
     476     2 C    6    9.922614  -26.569794    5.286483      4.00      12.0107
     477     2 C    6   10.979566  -26.065814    6.087199      4.00      12.0107
     478     2 C    6    8.668026  -28.649397    4.974432      4.00      12.0107
     479     2 C    6    8.742481  -27.380192    5.828845      4.00      12.0107
     480     2 C    6    8.452977  -31.059595    4.622857      4.00      12.0107
     481     2 C    6    8.538265  -29.958060    5.499712      4.00      12.0107
     482     1 H    1    8.338248  -32.059048    5.036089      1.00       1.0079
     483     2 C    6   11.093153  -26.332582    7.492976      4.00      12.0107
     484     2 C    6    8.490231  -30.170783    6.906881      4.00      12.0107
     485     2 C    6   11.354414  -26.537089    8.669544      4.00      12.0107
     486     2 C    6    8.487934  -30.356545    8.111999      4.00      12.0107
     487     1 H    1    8.943286  -28.389881    9.829518      1.00       1.0079
     488     2 C    6    8.544361  -30.492931    9.527628      4.00      12.0107
     489     1 H    1    8.199218  -32.614420    9.528707      1.00       1.0079
     490     2 C    6    8.808834  -29.356757   10.311320      4.00      12.0107
     491     2 C    6    8.372437  -31.741512   10.151425      4.00      12.0107
     492     1 H    1    6.984529  -36.295484    9.863327      1.00       1.0079
     493     2 C    6    5.465087  -37.821268   10.041532      4.00      12.0107
     494     2 C    6    6.263788  -36.765830   10.528489      4.00      12.0107
     495     1 H    1    3.971018  -39.291908   10.560134      1.00       1.0079
     496     1 H    1    6.783726  -33.902764   10.823499      1.00       1.0079
     497     2 C    6    8.923853  -29.457823   11.697607      4.00      12.0107
     498     2 C    6    4.575934  -38.462336   10.924039      4.00      12.0107
     499     1 H    1    9.226518  -27.334401   11.954786      1.00       1.0079
     500     1 H    1   10.272804  -28.362812   12.948274      1.00       1.0079
     501     2 C    6    8.472306  -31.866862   11.547013      4.00      12.0107
     502     2 C    6    9.256684  -28.265493   12.542355      4.00      12.0107
     503     2 C    6    7.352684  -34.117657   11.725580      4.00      12.0107
     504     2 C    6    8.750370  -30.711568   12.299504      4.00      12.0107
     505     2 C    6    6.163006  -36.341764   11.864977      4.00      12.0107
     506     2 C    6    8.272212  -33.173977   12.226289      4.00      12.0107
     507     2 C    6    4.428831  -38.027166   12.245661      4.00      12.0107
     508     1 H    1    8.555925  -28.177345   13.383479      1.00       1.0079
     509     2 C    6    7.088103  -35.315032   12.407836      4.00      12.0107
     510     1 H    1    8.812522  -30.782620   13.382600      1.00       1.0079
     511     2 C    6    5.224488  -36.969748   12.702873      4.00      12.0107
     512     1 H    1    2.503839  -38.916352   12.655636      1.00       1.0079
     513     1 H    1    3.877569  -39.701810   13.473491      1.00       1.0079
     514     2 C    6    3.465415  -38.726376   13.162398      4.00      12.0107
     515     2 C    6    8.983299  -33.497352   13.397479      4.00      12.0107
     516     1 H    1    5.116556  -36.630913   13.731495      1.00       1.0079
     517     2 C    6    7.759024  -35.561921   13.620082      4.00      12.0107
     518     1 H    1    9.746360  -32.810923   13.760157      1.00       1.0079
     519     1 H    1    3.267106  -38.134721   14.069603      1.00       1.0079
     520     2 C    6    8.739838  -34.685602   14.098253      4.00      12.0107
     521     1 H    1    7.548621  -36.465671   14.187416      1.00       1.0079
     522     1 H    1    0.786136  -29.219232   17.160615      1.00       1.0079
     523     2 C    6    9.528457  -35.007822   15.344446      4.00      12.0107
     524     3 O    8    9.152991  -34.133180   16.402505      6.00      15.9994
     525     1 H    1    9.367841  -36.071124   15.610853      1.00       1.0079
     526     1 H    1   10.610356  -34.899763   15.113930      1.00       1.0079
     527     1 H    1    8.945437  -27.658632    6.876182      1.00       1.0079
     528     1 H    1    9.260361  -27.114219    2.011457      1.00       1.0079
     529     1 H    1   -7.018698  -18.571059    2.224630      1.00       1.0079
     530     1 H    1   -8.775804  -17.530019    3.646000      1.00       1.0079
     531     2 C    6   -6.895612  -18.528044    3.302860      4.00      12.0107
     532     1 H    1   -2.477016  -18.581629    1.649618      1.00       1.0079
     533     2 C    6   -7.877200  -17.938487    4.101372      4.00      12.0107
     534     2 C    6   -4.612746  -19.641094    3.059390      4.00      12.0107
     535     2 C    6   -5.748562  -19.067910    3.888996      4.00      12.0107
     536     2 C    6   -2.318601  -18.567630    2.722536      4.00      12.0107
     537     2 C    6   -3.303190  -19.068435    3.577649      4.00      12.0107
     538     1 H    1   -0.345785  -17.703564    2.579273      1.00       1.0079
     539     2 C    6   -7.687925  -17.842036    5.477314      4.00      12.0107
     540     2 C    6   -1.122639  -18.067534    3.245208      4.00      12.0107
     541     1 H    1   -8.435329  -17.340554    6.089193      1.00       1.0079
     542     2 C    6   -5.552815  -19.015442    5.286486      4.00      12.0107
     543     2 C    6   -6.518565  -18.353813    6.087173      4.00      12.0107
     544     2 C    6   -3.121100  -19.060075    4.974434      4.00      12.0107
     545     2 C    6   -4.259587  -19.630324    5.828858      4.00      12.0107
     546     2 C    6   -0.922296  -18.040828    4.622869      4.00      12.0107
     547     2 C    6   -1.920710  -18.517949    5.499684      4.00      12.0107
     548     1 H    1    0.002293  -17.640287    5.036100      1.00       1.0079
     549     2 C    6   -6.343910  -18.122291    7.492951      4.00      12.0107
     550     2 C    6   -1.712118  -18.453076    6.906852      4.00      12.0107
     551     2 C    6   -6.297057  -17.794162    8.669513      4.00      12.0107
     552     2 C    6   -1.549797  -18.362164    8.111980      4.00      12.0107
     553     1 H    1   -3.483936  -18.951930    9.829504      1.00       1.0079
     554     2 C    6   -1.459682  -18.245189    9.527640      4.00      12.0107
     555     1 H    1    0.553729  -17.482801    9.528661      1.00       1.0079
     556     2 C    6   -2.577746  -18.584695   10.311327      4.00      12.0107
     557     2 C    6   -0.290317  -17.769511   10.151394      4.00      12.0107
     558     1 H    1    4.354960  -16.692208    9.863322      1.00       1.0079
     559     2 C    6    6.438572  -17.242709   10.041525      4.00      12.0107
     560     2 C    6    5.123439  -17.080059   10.528486      4.00      12.0107
     561     1 H    1    8.461677  -17.798789   10.560145      1.00       1.0079
     562     1 H    1    2.379300  -18.062130   10.823469      1.00       1.0079
     563     2 C    6   -2.547531  -18.434710   11.697633      4.00      12.0107
     564     2 C    6    7.439402  -17.690734   10.924049      4.00      12.0107
     565     1 H    1   -4.541310  -19.234807   11.954777      1.00       1.0079
     566     1 H    1   -4.172120  -17.816183   12.948263      1.00       1.0079
     567     2 C    6   -0.231493  -17.620570   11.547007      4.00      12.0107
     568     2 C    6   -3.748512  -18.743183   12.542362      4.00      12.0107
     569     2 C    6    2.281253  -17.462921   11.725571      4.00      12.0107
     570     2 C    6   -1.372961  -17.957769   12.299548      4.00      12.0107
     571     2 C    6    4.805882  -17.379250   11.864970      4.00      12.0107
     572     2 C    6    1.002682  -17.139927   12.226285      4.00      12.0107
     573     2 C    6    7.135369  -18.035536   12.245664      4.00      12.0107
     574     1 H    1   -3.474604  -19.392960   13.383502      1.00       1.0079
     575     2 C    6    3.452474  -17.092911   12.407824      4.00      12.0107
     576     1 H    1   -1.342371  -17.868518   13.382654      1.00       1.0079
     577     2 C    6    5.820037  -17.876442   12.702876      4.00      12.0107
     578     1 H    1    8.869372  -19.254815   12.655615      1.00       1.0079
     579     1 H    1    8.864015  -17.674636   13.473503      1.00       1.0079
     580     2 C    6    8.223762  -18.518648   13.162420      4.00      12.0107
     581     2 C    6    0.927719  -16.363581   13.397490      4.00      12.0107
     582     1 H    1    5.579988  -18.139146   13.731502      1.00       1.0079
     583     2 C    6    3.331263  -16.389571   13.620109      4.00      12.0107
     584     1 H    1   -0.049436  -16.047221   13.760155      1.00       1.0079
     585     1 H    1    7.809521  -18.985897   14.069615      1.00       1.0079
     586     2 C    6    2.080468  -15.979874   14.098228      4.00      12.0107
     587     1 H    1    4.220607  -16.119542   14.187433      1.00       1.0079
     588     1 H    1    1.314310  -25.588094   17.160582      1.00       1.0079
     589     2 C    6    1.965709  -15.137130   15.344439      4.00      12.0107
     590     3 O    8    1.394546  -15.899031   16.402529      6.00      15.9994
     591     1 H    1    2.968602  -14.744296   15.610855      1.00       1.0079
     592     1 H    1    1.331004  -14.255979   15.113953      1.00       1.0079
     593     1 H    1   -4.119456  -19.315702    6.876198      1.00       1.0079
     594     1 H    1   -4.749297  -19.315679    2.011451      1.00       1.0079
     595     1 H    1   -7.018697  -22.306195    2.224622      1.00       1.0079
     596     1 H    1   -8.775790  -23.347236    3.646000      1.00       1.0079
     597     2 C    6   -6.895639  -22.349158    3.302856      4.00      12.0107
     598     1 H    1   -2.477019  -22.295625    1.649612      1.00       1.0079
     599     2 C    6   -7.877190  -22.938763    4.101375      4.00      12.0107
     600     2 C    6   -4.612741  -21.236095    3.059436      4.00      12.0107
     601     2 C    6   -5.748521  -21.809397    3.888990      4.00      12.0107
     602     2 C    6   -2.318584  -22.309572    2.722526      4.00      12.0107
     603     2 C    6   -3.303230  -21.808861    3.577652      4.00      12.0107
     604     1 H    1   -0.345797  -23.173691    2.579278      1.00       1.0079
     605     2 C    6   -7.687918  -23.035200    5.477318      4.00      12.0107
     606     2 C    6   -1.122647  -22.809717    3.245215      4.00      12.0107
     607     1 H    1   -8.435319  -23.536693    6.089184      1.00       1.0079
     608     2 C    6   -5.552833  -21.861766    5.286490      4.00      12.0107
     609     2 C    6   -6.518550  -22.523448    6.087179      4.00      12.0107
     610     2 C    6   -3.121081  -21.817122    4.974431      4.00      12.0107
     611     2 C    6   -4.259586  -21.246940    5.828873      4.00      12.0107
     612     2 C    6   -0.922303  -22.836417    4.622876      4.00      12.0107
     613     2 C    6   -1.920722  -22.359310    5.499692      4.00      12.0107
     614     1 H    1    0.002286  -23.236965    5.036094      1.00       1.0079
     615     2 C    6   -6.343907  -22.754935    7.492966      4.00      12.0107
     616     2 C    6   -1.712122  -22.424179    6.906859      4.00      12.0107
     617     2 C    6   -6.297059  -23.083067    8.669521      4.00      12.0107
     618     2 C    6   -1.549795  -22.515083    8.111980      4.00      12.0107
     619     1 H    1   -3.483936  -21.925321    9.829502      1.00       1.0079
     620     2 C    6   -1.459683  -22.632072    9.527634      4.00      12.0107
     621     1 H    1    0.553731  -23.394452    9.528664      1.00       1.0079
     622     2 C    6   -2.577748  -22.292569   10.311316      4.00      12.0107
     623     2 C    6   -0.290319  -23.107744   10.151382      4.00      12.0107
     624     1 H    1    4.354953  -24.185041    9.863320      1.00       1.0079
     625     2 C    6    6.438574  -23.634504   10.041528      4.00      12.0107
     626     2 C    6    5.123450  -23.797204   10.528463      4.00      12.0107
     627     1 H    1    8.461674  -23.078463   10.560140      1.00       1.0079
     628     1 H    1    2.379297  -22.815088   10.823539      1.00       1.0079
     629     2 C    6   -2.547526  -22.442545   11.697619      4.00      12.0107
     630     2 C    6    7.439406  -23.186514   10.924050      4.00      12.0107
     631     1 H    1   -4.541304  -21.642449   11.954784      1.00       1.0079
     632     1 H    1   -4.172118  -23.061061   12.948260      1.00       1.0079
     633     2 C    6   -0.231519  -23.256680   11.546991      4.00      12.0107
     634     2 C    6   -3.748500  -22.134071   12.542358      4.00      12.0107
     635     2 C    6    2.281241  -23.414328   11.725625      4.00      12.0107
     636     2 C    6   -1.372960  -22.919450   12.299555      4.00      12.0107
     637     2 C    6    4.805911  -23.498010   11.864947      4.00      12.0107
     638     2 C    6    1.002654  -23.737324   12.226272      4.00      12.0107
     639     2 C    6    7.135366  -22.841726   12.245665      4.00      12.0107
     640     1 H    1   -3.474607  -21.484292   13.383501      1.00       1.0079
     641     2 C    6    3.452494  -23.784339   12.407805      4.00      12.0107
     642     1 H    1   -1.342355  -23.008657   13.382663      1.00       1.0079
     643     2 C    6    5.820037  -23.000803   12.702883      4.00      12.0107
     644     1 H    1    8.869369  -21.622442   12.655618      1.00       1.0079
     645     1 H    1    8.864012  -23.202611   13.473500      1.00       1.0079
     646     2 C    6    8.223757  -22.358609   13.162418      4.00      12.0107
     647     2 C    6    0.927799  -24.513665   13.397475      4.00      12.0107
     648     1 H    1    5.579984  -22.738100   13.731512      1.00       1.0079
     649     2 C    6    3.331195  -24.487678   13.620074      4.00      12.0107
     650     1 H    1   -0.049351  -24.829993   13.760117      1.00       1.0079
     651     1 H    1    7.809522  -21.891358   14.069610      1.00       1.0079
     652     2 C    6    2.080466  -24.897405   14.098306      4.00      12.0107
     653     1 H    1    4.220530  -24.757679   14.187386      1.00       1.0079
     654     1 H    1    1.314340  -15.289355   17.160344      1.00       1.0079
     655     2 C    6    1.965698  -25.740129   15.344482      4.00      12.0107
     656     3 O    8    1.394549  -24.977919   16.402314      6.00      15.9994
     657     1 H    1    2.968640  -26.132935   15.610816      1.00       1.0079
     658     1 H    1    1.330993  -26.621291   15.113895      1.00       1.0079
     659     1 H    1   -4.119455  -21.561555    6.876209      1.00       1.0079
     660     1 H    1   -4.749289  -21.561558    2.011504      1.00       1.0079
     661     1 H    1    7.800226  -23.657306    2.224639      1.00       1.0079
     662     1 H    1    7.775542  -21.618012    3.646001      1.00       1.0079
     663     2 C    6    7.701429  -23.742222    3.302878      4.00      12.0107
     664     1 H    1    5.538578  -27.588352    1.649630      1.00       1.0079
     665     2 C    6    7.680638  -22.598983    4.101374      4.00      12.0107
     666     2 C    6    7.525764  -26.272040    3.059379      4.00      12.0107
     667     2 C    6    7.596276  -25.003649    3.888989      4.00      12.0107
     668     2 C    6    5.447260  -27.718300    2.722545      4.00      12.0107
     669     2 C    6    6.374089  -27.117629    3.577655      4.00      12.0107
     670     1 H    1    3.711130  -28.991509    2.579290      1.00       1.0079
     671     2 C    6    7.502327  -22.714376    5.477320      4.00      12.0107
     672     2 C    6    4.415349  -28.501993    3.245216      4.00      12.0107
     673     1 H    1    7.440916  -21.817579    6.089182      1.00       1.0079
     674     2 C    6    7.452876  -25.146593    5.286474      4.00      12.0107
     675     2 C    6    7.361713  -23.981008    6.087199      4.00      12.0107
     676     2 C    6    6.275829  -27.270900    4.974437      4.00      12.0107
     677     2 C    6    7.339817  -26.571877    5.828857      4.00      12.0107
     678     2 C    6    4.292035  -28.661864    4.622865      4.00      12.0107
     679     2 C    6    5.205145  -28.037321    5.499692      4.00      12.0107
     680     1 H    1    3.482175  -29.260741    5.036097      1.00       1.0079
     681     2 C    6    7.073462  -24.016206    7.492976      4.00      12.0107
     682     2 C    6    5.044600  -28.185218    6.906866      4.00      12.0107
     683     2 C    6    6.765358  -23.892649    8.669544      4.00      12.0107
     684     2 C    6    4.884568  -28.280096    8.111990      4.00      12.0107
     685     1 H    1    6.363331  -26.903153    9.829518      1.00       1.0079
     686     2 C    6    4.737985  -28.299457    9.527629      4.00      12.0107
     687     1 H    1    3.069785  -29.658663    9.528667      1.00       1.0079
     688     2 C    6    5.591630  -27.502845   10.311341      4.00      12.0107
     689     2 C    6    3.740622  -29.072456   10.151363      4.00      12.0107
     690     1 H    1    0.483200  -32.549066    9.863316      1.00       1.0079
     691     2 C    6   -0.080950  -34.625348   10.041532      4.00      12.0107
     692     2 C    6    0.435460  -33.407238   10.528455      4.00      12.0107
     693     1 H    1   -0.609979  -36.652096   10.560137      1.00       1.0079
     694     1 H    1    2.659659  -31.526251   10.823554      1.00       1.0079
     695     2 C    6    5.446337  -27.453907   11.697636      4.00      12.0107
     696     2 C    6   -0.192611  -35.714443   10.924039      4.00      12.0107
     697     1 H    1    7.137490  -26.130622   11.954779      1.00       1.0079
     698     1 H    1    5.722010  -25.740417   12.948268      1.00       1.0079
     699     2 C    6    3.581952  -29.048742   11.546949      4.00      12.0107
     700     2 C    6    6.314536  -26.570076   12.542367      4.00      12.0107
     701     2 C    6    2.188755  -31.141905   11.725645      4.00      12.0107
     702     2 C    6    4.445313  -28.230780   12.299550      4.00      12.0107
     703     2 C    6    0.853823  -33.282351   11.864938      4.00      12.0107
     704     2 C    6    2.547820  -29.875242   12.226221      4.00      12.0107
     705     2 C    6    0.258547  -35.624019   12.245662      4.00      12.0107
     706     1 H    1    6.741393  -27.131726   13.383491      1.00       1.0079
     707     2 C    6    1.282077  -31.969335   12.407810      4.00      12.0107
     708     1 H    1    4.352562  -28.212599   13.382650      1.00       1.0079
     709     2 C    6    0.778185  -34.407561   12.702885      4.00      12.0107
     710     1 H    1    0.449515  -37.732530   12.655636      1.00       1.0079
     711     1 H    1   -0.918892  -36.937799   13.473489      1.00       1.0079
     712     2 C    6    0.133556  -36.806369   13.162410      4.00      12.0107
     713     2 C    6    1.911683  -29.422397   13.397472      4.00      12.0107
     714     1 H    1    1.126170  -34.331441   13.731506      1.00       1.0079
     715     2 C    6    0.732531  -31.512792   13.620087      4.00      12.0107
     716     1 H    1    2.125738  -28.419597   13.760108      1.00       1.0079
     717     1 H    1    0.746075  -36.681939   14.069602      1.00       1.0079
     718     2 C    6    1.002325  -30.226819   14.098281      4.00      12.0107
     719     1 H    1    0.053566  -32.146526   14.187369      1.00       1.0079
     720     1 H    1    9.722072  -34.368699   17.160325      1.00       1.0079
     721     2 C    6    0.328485  -29.706318   15.344494      4.00      12.0107
     722     3 O    8    1.275448  -29.593656   16.402309      6.00      15.9994
     723     1 H    1   -0.513803  -30.376836   15.610839      1.00       1.0079
     724     1 H    1   -0.118687  -28.717121   15.113904      1.00       1.0079
     725     1 H    1    6.996735  -26.535698    6.876190      1.00       1.0079
     726     1 H    1    7.311641  -25.991265    2.011447      1.00       1.0079
     727     1 H    1   11.041175  -15.352326    2.224634      1.00       1.0079
     728     1 H    1  -10.822460  -16.350672    3.645993      1.00       1.0079
     729     2 C    6   11.016891  -15.224491    3.302881      4.00      12.0107
     730     1 H    1    8.761142  -11.431891    1.649634      1.00       1.0079
     731     2 C    6  -11.626169  -15.778152    4.101387      4.00      12.0107
     732     2 C    6    8.909682  -13.807751    3.059381      4.00      12.0107
     733     2 C    6    9.974972  -14.502861    3.888997      4.00      12.0107
     734     2 C    6    8.694062  -11.287987    2.722560      4.00      12.0107
     735     2 C    6    8.751827  -12.389465    3.577673      4.00      12.0107
     736     1 H    1    8.457365   -9.150670    2.579259      1.00       1.0079
     737     2 C    6  -11.637124  -15.566267    5.477331      4.00      12.0107
     738     2 C    6    8.530008  -10.004157    3.245198      4.00      12.0107
     739     1 H    1  -10.828286  -15.961584    6.089180      1.00       1.0079
     740     2 C    6    9.922597  -14.307453    5.286481      4.00      12.0107
     741     2 C    6   10.979535  -14.811444    6.087183      4.00      12.0107
     742     2 C    6    8.668033  -12.227859    4.974436      4.00      12.0107
     743     2 C    6    8.742480  -13.497057    5.828834      4.00      12.0107
     744     2 C    6    8.452975   -9.817655    4.622867      4.00      12.0107
     745     2 C    6    8.538269  -10.919209    5.499701      4.00      12.0107
     746     1 H    1    8.338249   -8.818190    5.036094      1.00       1.0079
     747     2 C    6   11.093157  -14.544684    7.492932      4.00      12.0107
     748     2 C    6    8.490227  -10.706466    6.906847      4.00      12.0107
     749     2 C    6   11.354410  -14.340149    8.669507      4.00      12.0107
     750     2 C    6    8.487926  -10.520702    8.111981      4.00      12.0107
     751     1 H    1    8.943297  -12.487434    9.829471      1.00       1.0079
     752     2 C    6    8.544383  -10.384324    9.527657      4.00      12.0107
     753     1 H    1    8.199200   -8.262716    9.528643      1.00       1.0079
     754     2 C    6    8.808833  -11.520522   10.311328      4.00      12.0107
     755     2 C    6    8.372419   -9.135667   10.151376      4.00      12.0107
     756     1 H    1    6.984563   -4.581771    9.863308      1.00       1.0079
     757     2 C    6    5.465083   -3.055953   10.041529      4.00      12.0107
     758     2 C    6    6.263800   -4.111404   10.528460      4.00      12.0107
     759     1 H    1    3.971012   -1.585292   10.560133      1.00       1.0079
     760     1 H    1    6.783738   -6.974440   10.823512      1.00       1.0079
     761     2 C    6    8.923860  -11.419370   11.697644      4.00      12.0107
     762     2 C    6    4.575915   -2.414890   10.924043      4.00      12.0107
     763     1 H    1    9.226517  -13.542825   11.954769      1.00       1.0079
     764     1 H    1   10.272807  -12.514432   12.948277      1.00       1.0079
     765     2 C    6    8.472298   -9.010381   11.546988      4.00      12.0107
     766     2 C    6    9.256683  -12.611745   12.542340      4.00      12.0107
     767     2 C    6    7.352700   -6.759564   11.725599      4.00      12.0107
     768     2 C    6    8.750381  -10.165637   12.299588      4.00      12.0107
     769     2 C    6    6.162959   -4.535479   11.864950      4.00      12.0107
     770     2 C    6    8.272223   -7.703266   12.226271      4.00      12.0107
     771     2 C    6    4.428806   -2.850071   12.245675      4.00      12.0107
     772     1 H    1    8.555927  -12.699904   13.383479      1.00       1.0079
     773     2 C    6    7.088104   -5.562177   12.407826      4.00      12.0107
     774     1 H    1    8.812530  -10.094577   13.382700      1.00       1.0079
     775     2 C    6    5.224475   -3.907494   12.702893      4.00      12.0107
     776     1 H    1    2.503823   -1.960908   12.655627      1.00       1.0079
     777     1 H    1    3.877584   -1.175436   13.473488      1.00       1.0079
     778     2 C    6    3.465395   -2.150871   13.162418      4.00      12.0107
     779     2 C    6    8.983263   -7.379836   13.397487      4.00      12.0107
     780     1 H    1    5.116554   -4.246353   13.731523      1.00       1.0079
     781     2 C    6    7.759028   -5.315358   13.620084      4.00      12.0107
     782     1 H    1    9.746316   -8.066296   13.760132      1.00       1.0079
     783     1 H    1    3.267104   -2.742543   14.069615      1.00       1.0079
     784     2 C    6    8.739897   -6.191611   14.098295      4.00      12.0107
     785     1 H    1    7.548633   -4.411625   14.187389      1.00       1.0079
     786     1 H    1    0.786293  -11.657876   17.160315      1.00       1.0079
     787     2 C    6    9.528504   -5.869400   15.344455      4.00      12.0107
     788     3 O    8    9.152748   -6.744194   16.402317      6.00      15.9994
     789     1 H    1    9.367842   -4.806111   15.610833      1.00       1.0079
     790     1 H    1   10.610392   -5.977481   15.113904      1.00       1.0079
     791     1 H    1    8.945434  -13.218626    6.876170      1.00       1.0079
     792     1 H    1    9.260364  -13.763032    2.011456      1.00       1.0079



 PW_GRID| Information for grid number                                          2
 PW_GRID| Grid distributed over                                    64 processors
 PW_GRID| Real space group dimensions                                     8    8
 PW_GRID| the grid is blocked:                                               YES
 PW_GRID| Cutoff [a.u.]                                                      1.0
 PW_GRID| spherical cutoff:                                                   NO
 PW_GRID|   Bounds   1            -12      11                Points:          24
[...]

 
     Lanczos converged:  T threshold:   0.100E-03
     Est. extremal eigenvalues:    0.204E+01   0.215E+00
     Est. condition number :    0.950E+01
     NS sqrt iter    1 0.07393015   0.516E+00       0.081       18.145
     NS sqrt iter    2 0.07456907   0.192E+00       0.064       60.217
     NS sqrt iter    3 0.07415597   0.137E-01       0.052       38.386
     NS sqrt iter    4 0.07890162   0.437E-04       0.036       22.750
     Final NS sqrt iter    4 0.07445064   0.821E-05

 Error for (inv(sqrt(S))*S*inv(sqrt(S))-I)  2.936508853980932E-005
 Error for (inv(S)*S-I)  4.691947656536611E-005

 Energy with the initial guess:      -729.267832553

     Lanczos converged:                  T
     change in mixed matrix:       1.89380
     HOMO upper bound:             1.89380
     LUMO lower bound:            -1.89380
     Predicts a gap ?                    F
     Est. extremal eigenvalues     -0.92841     1.89380  converged:  T
     TRS4 it   1 0.07431296   0.855E+02       0.016       28.628   0.100E-04
     TRS4 it   2 0.08130480   0.909E+02       0.028       29.232   0.100E-04
     TRS4 it   3 0.08954959   0.638E+02       0.030       34.310   0.100E-04
     TRS4 it   4 0.10825409   0.397E+02       0.033       44.662   0.100E-04
     TRS4 it   5 0.13631485   0.233E+02       0.041       58.371   0.100E-04
     TRS4 it   6 0.17136704   0.132E+02       0.053       75.147   0.100E-04
     TRS4 it   7 0.21707574   0.580E+01       0.068       94.214   0.100E-04
     TRS4 it   8 0.25160607   0.157E+01       0.082      116.270   0.100E-04
     TRS4 it   9 0.25615133   0.174E+00       0.092      129.377   0.100E-04
     TRS4 it  10 0.24997876   0.306E-02       0.097      126.694   0.100E-04
     Final TRS4 iteration   10 0.24997876   0.306E-02
     Chemical potential (mu):      -0.17330
     Lanczos converged:                  T
     Lanczos converged:                  T
     HOMO/LUMO/gap     -0.23442    -0.10931     0.12511
 
 SCF     1      -957.748632968      -957.748632968    0.839864
 
*********************************************************
 Using MIXING_FRACTION=0.450 to mix KS matrix:  iscf=  2
 KS_nw=0.450*KS + 0.550*KS_old
*********************************************************
     Lanczos converged:                  T
     change in mixed matrix:       0.04827
     HOMO upper bound:            -0.18615
     LUMO lower bound:            -0.15759
     Predicts a gap ?                    T
     Est. extremal eigenvalues     -0.89479     1.92368  converged:  T
     TRS4 it   1 0.07447249   0.840E+02       0.016       29.146   0.100E-04
     TRS4 it   2 0.08017811   0.902E+02       0.028       28.146   0.100E-04
     TRS4 it   3 0.08938326   0.636E+02       0.031       31.927   0.100E-04
     TRS4 it   4 0.10887456   0.395E+02       0.035       41.458   0.100E-04
     TRS4 it   5 0.13653449   0.230E+02       0.040       60.497   0.100E-04
     TRS4 it   6 0.17123317   0.129E+02       0.050       78.565   0.100E-04
     TRS4 it   7 0.21572940   0.573E+01       0.065       97.821   0.100E-04
     TRS4 it   8 0.24904646   0.157E+01       0.080      117.192   0.100E-04
     TRS4 it   9 0.25856184   0.178E+00       0.091      131.203   0.100E-04
     TRS4 it  10 0.27560495   0.361E-02       0.094      136.167   0.100E-04
     Final TRS4 iteration   10 0.27560495   0.361E-02
     Chemical potential (mu):      -0.15588
     Lanczos converged:                  T
     Lanczos converged:                  T
     HOMO/LUMO/gap     -0.21432    -0.08938     0.12494
 
 SCF     2      -957.971462746        -0.222829778    0.848681
 
*********************************************************
 Using MIXING_FRACTION=0.450 to mix KS matrix:  iscf=  3
 KS_nw=0.450*KS + 0.550*KS_old
*********************************************************
     Lanczos converged:                  T
     change in mixed matrix:       0.01848
     HOMO upper bound:            -0.19584
     LUMO lower bound:            -0.10786
     Predicts a gap ?                    T
     Est. extremal eigenvalues     -0.88105     1.92461  converged:  T
     TRS4 it   1 0.07470255   0.833E+02       0.016       29.051   0.100E-04
     TRS4 it   2 0.07985264   0.895E+02       0.027       29.168   0.100E-04
     TRS4 it   3 0.08953356   0.631E+02       0.029       34.368   0.100E-04
     TRS4 it   4 0.10947738   0.392E+02       0.033       44.674   0.100E-04
     TRS4 it   5 0.13748363   0.228E+02       0.040       61.054   0.100E-04
     TRS4 it   6 0.17216266   0.128E+02       0.050       79.805   0.100E-04
     TRS4 it   7 0.21695109   0.564E+01       0.065       98.243   0.100E-04
     TRS4 it   8 0.24882360   0.153E+01       0.081      117.384   0.100E-04
     TRS4 it   9 0.25721109   0.167E+00       0.091      130.210   0.100E-04
     TRS4 it  10 0.27384657   0.309E-02       0.096      133.659   0.100E-04
     Final TRS4 iteration   10 0.27384657   0.309E-02
     Chemical potential (mu):      -0.15380
     Lanczos converged:                  T
     Lanczos converged:                  T
     HOMO/LUMO/gap     -0.21242    -0.08745     0.12496
 
 SCF     3      -957.995542433        -0.024079687    0.840753
 
*********************************************************
 Using MIXING_FRACTION=0.450 to mix KS matrix:  iscf=  4
 KS_nw=0.450*KS + 0.550*KS_old
*********************************************************
     Lanczos converged:                  T
     change in mixed matrix:       0.00701
     HOMO upper bound:            -0.20541
     LUMO lower bound:            -0.09446
     Predicts a gap ?                    T
     Est. extremal eigenvalues     -0.87841     1.93107  converged:  T
     TRS4 it   1 0.07465285   0.832E+02       0.016       29.144   0.100E-04
     TRS4 it   2 0.07970715   0.896E+02       0.028       28.988   0.100E-04
     TRS4 it   3 0.08952034   0.632E+02       0.029       34.282   0.100E-04
     TRS4 it   4 0.10948740   0.392E+02       0.033       44.544   0.100E-04
     TRS4 it   5 0.13719905   0.228E+02       0.040       60.490   0.100E-04
     TRS4 it   6 0.17173780   0.128E+02       0.051       78.436   0.100E-04
     TRS4 it   7 0.21634505   0.568E+01       0.066       97.116   0.100E-04
     TRS4 it   8 0.24848131   0.155E+01       0.083      114.159   0.100E-04
     TRS4 it   9 0.25749126   0.173E+00       0.091      130.240   0.100E-04
     TRS4 it  10 0.27690159   0.346E-02       0.094      136.269   0.100E-04
     Final TRS4 iteration   10 0.27690159   0.346E-02
     Chemical potential (mu):      -0.15046
     Lanczos converged:                  T
     Lanczos converged:                  T
     HOMO/LUMO/gap     -0.20859    -0.08385     0.12474
 
 SCF     4      -957.999404868        -0.003862434    0.837219
 

 Sparsity reports for eps_filter:         0.100E-04

 Sparsity for : overlap matrix (S)
   0.000010000000 :   0.058429409020
   0.000100000000 :   0.036177686712
   0.001000000000 :   0.023585639230
   0.010000000000 :   0.016918459518
   0.100000000000 :   0.007447168393
   1.000000000000 :   0.003271463316
 Sparsity for : Kohn-Sham matrix (H) for spin   1
   0.000010000000 :   0.060339299084
   0.000100000000 :   0.035831381358
   0.001000000000 :   0.025165657411
   0.010000000000 :   0.017403046525
   0.100000000000 :   0.007391054099
   1.000000000000 :   0.000000000000
 Sparsity for : Density matrix (P) for spin   1
   0.000010000000 :   0.275249185840
   0.000100000000 :   0.177816398171
   0.001000000000 :   0.094949159183
   0.010000000000 :   0.041258783931
   0.100000000000 :   0.015338960188
   1.000000000000 :   0.001695764443
 Sparsity for : S * P(  1)
   0.000010000000 :   0.287248806863
   0.000100000000 :   0.174584047931
   0.001000000000 :   0.093226296232
   0.010000000000 :   0.040017070053
   0.100000000000 :   0.010016411660
   1.000000000000 :   0.005299263884
 Sparsity for : S * P(  1) * S
   0.000010000000 :   0.290753346565
   0.000100000000 :   0.169906845364
   0.001000000000 :   0.090270952968
   0.010000000000 :   0.038745648180
   0.100000000000 :   0.014635603345
   1.000000000000 :   0.005728022507
 Sparsity for : inv(S)
   0.000010000000 :   0.081386255315
   0.000100000000 :   0.056704933775
   0.001000000000 :   0.032521421873
   0.010000000000 :   0.019812823576
   0.100000000000 :   0.008389698231
   1.000000000000 :   0.004811490731
 Sparsity for : inv(S) * H(  1)
   0.000010000000 :   0.090879163937
   0.000100000000 :   0.052623296206
   0.001000000000 :   0.030617902198
   0.010000000000 :   0.016216550404
   0.100000000000 :   0.005938788685
   1.000000000000 :   0.000154160404
 Sparsity for : sqrt(S)
   0.000010000000 :   0.059879273134
   0.000100000000 :   0.032203466040
   0.001000000000 :   0.020447932324
   0.010000000000 :   0.013074729256
   0.100000000000 :   0.005728022507
   1.000000000000 :   0.001666859367
 Sparsity for : inv(sqrt(S))
   0.000010000000 :   0.074450642977
   0.000100000000 :   0.037572583857
   0.001000000000 :   0.023578512609
   0.010000000000 :   0.013472174047
   0.100000000000 :   0.005728022507
   1.000000000000 :   0.001666859367
 Sparsity for : inv(sqrt(S)) * H(  1) * inv(sqrt(S))
   0.000010000000 :   0.084927528552
   0.000100000000 :   0.053577966624
   0.001000000000 :   0.030048030601
   0.010000000000 :   0.015867682198
   0.100000000000 :   0.005923533228
   1.000000000000 :   0.000154160404
 Sparsity for : sqrt(S) * P(  1) * sqrt(S)
   0.000010000000 :   0.279696552909
   0.000100000000 :   0.172105437687
   0.001000000000 :   0.091784454850
   0.010000000000 :   0.039644917203
   0.100000000000 :   0.008820865611
   1.000000000000 :   0.004624812117


 MULLIKEN POPULATION ANALYSIS

 #  Atom  Element  Kind  Atomic population                Net charge
 # Total charge                  0.000000                  0.000000


 ENERGY| Total FORCE_EVAL ( QS ) energy (a.u.):             -957.999404867547241


 -------------------------------------------------------------------------------
 -                                                                             -
 -                                DBCSR STATISTICS                             -
 -                                                                             -
 -------------------------------------------------------------------------------
 COUNTER                                      CPU                  ACC      ACC%
 number of processed stacks                688416                    0       0.0
 matmuls inhomo. stacks                         0                    0       0.0
 matmuls total                          304871809                    0       0.0
 flops   1 x    1 x    1                 13791692                    0       0.0
 flops   1 x    4 x    1                110910320                    0       0.0
 flops   4 x    1 x    1                126285592                    0       0.0
 flops   1 x    1 x    4                166761912                    0       0.0
 flops   4 x    4 x    1               1101510656                    0       0.0
 flops   1 x    4 x    4               1484401408                    0       0.0
 flops   4 x    1 x    4               1652010400                    0       0.0
 flops   4 x    4 x    4              14725908224                    0       0.0
 flops total                          19381580204                    0       0.0
 marketing flops                    3535979111424
 -------------------------------------------------------------------------------

 -------------------------------------------------------------------------------
 ----                             MULTIGRID INFO                            ----
 -------------------------------------------------------------------------------
 total grid count     :             0              cutoff [a.u.]            1.00

 -------------------------------------------------------------------------------
 -                                                                             -
 -                         MESSAGE PASSING PERFORMANCE                         -
 -                                                                             -
 -------------------------------------------------------------------------------

 ROUTINE             CALLS  TOT TIME [s]  AVE VOLUME [Bytes]  PERFORMANCE [MB/s]
 MP_Group                3         0.000
 MP_Bcast             2275         0.080              21714.              614.85
 MP_Allreduce         1098         9.111               6538.                0.79
 MP_Sync                 2         0.000
 MP_Alltoall           396         2.698              14735.                2.16
 MP_Wait             12950         0.111
 MP_ISend             5914         0.063              87049.             8206.25
 MP_IRecv             5914         0.014              86903.            36929.99
 MP_Memory            3180         0.514
 -------------------------------------------------------------------------------


 -------------------------------------------------------------------------------
 -                                                                             -
 -                           R E F E R E N C E S                               -
 -                                                                             -
 -------------------------------------------------------------------------------
 
 CP2K version 2.6, the CP2K developers group (2014).
 CP2K is freely available from http://www.cp2k.org/ .

 Borstnik, U; VandeVondele, J; Weber, V; Hutter, J. 
 PARALLEL COMPUTING, 40 (5-6), 47-58 (2014). 
 Sparse matrix multiplication: The distributed block-compressed sparse
 row library.
 http://dx.doi.org/10.1016/j.parco.2014.03.012


 Hutter, J; Iannuzzi, M; Schiffmann, F; VandeVondele, J. 
 WILEY INTERDISCIPLINARY REVIEWS-COMPUTATIONAL MOLECULAR SCIENCE, 4 (1), 15-25 (2014). 
 CP2K: atomistic simulations of condensed matter systems.
 http://dx.doi.org/10.1002/wcms.1159


 VandeVondele, J; Borstnik, U; Hutter, J. 
 JOURNAL OF CHEMICAL THEORY AND COMPUTATION, 8 (10), 3565-3573 (2012). 
 Linear Scaling Self-Consistent Field Calculations with Millions of Atoms
 in the Condensed Phase.
 http://dx.doi.org/10.1021/ct200897x


 Hu, H; Lu, ZY; Elstner, M; Hermans, J; Yang, WT. 
 JOURNAL OF PHYSICAL CHEMISTRY A, 111 (26), 5685-5691 (2007). 
 Simulating water with the self-consistent-charge density functional
 tight binding method: From molecular clusters to the liquid state.
 http://dx.doi.org/10.1021/jp070308d


 Zhechkov, L; Heine, T; Patchkovskii, S; Seifert, G; Duarte, HA. 
 JOURNAL OF CHEMICAL THEORY AND COMPUTATION, 1 (5), 841-847 (2005). 
 An efficient a Posteriori treatment for dispersion interaction in
 density-functional-based tight binding.
 http://dx.doi.org/10.1021/ct050065y


 Frigo, M; Johnson, SG. 
 PROCEEDINGS OF THE IEEE, 93 (2), 216-231 (2005). 
 The design and implementation of FFTW3.
 http://dx.doi.org/10.1109/JPROC.2004.840301


 Niklasson, AMN; Tymczak, CJ; Challacombe, M. 
 JOURNAL OF CHEMICAL PHYSICS, 118 (19), 8611-8620 (2003). 
 Trace resetting density matrix purification in O(N)
 self-consistent-field theory.
 http://dx.doi.org/10.1063/1.1559913


 Elstner, M; Porezag, D; Jungnickel, G; Elsner, J; Haugk, M;
 Frauenheim, T; Suhai, S; Seifert, G. 
 PHYSICAL REVIEW B, 58 (11), 7260-7268 (1998). 
 Self-consistent-charge density-functional tight-binding method for
 simulations of complex materials properties.
 http://dx.doi.org/10.1103/PhysRevB.58.7260


 Seifert, G; Porezag, D; Frauenheim, T. 
 INTERNATIONAL JOURNAL OF QUANTUM CHEMISTRY, 58 (2), 185-192 (1996). 
 Calculations of molecules, clusters, and solids with a simplified
 LCAO-DFT-LDA scheme.
 http://dx.doi.org/10.1002/(SICI)1097-461X(1996)58:2<185::AID-QUA7>3.0.CO;2-U


 POREZAG, D; FRAUENHEIM, T; KOHLER, T; SEIFERT, G; KASCHNER, R. 
 PHYSICAL REVIEW B, 51 (19), 12947-12957 (1995). 
 CONSTRUCTION OF TIGHT-BINDING-LIKE POTENTIALS ON THE BASIS OF
 DENSITY-FUNCTIONAL THEORY - APPLICATION TO CARBON.
 http://dx.doi.org/10.1103/PhysRevB.51.12947


 -------------------------------------------------------------------------------
 -                                                                             -
 -                                T I M I N G                                  -
 -                                                                             -
 -------------------------------------------------------------------------------
 SUBROUTINE                       CALLS  ASD         SELF TIME        TOTAL TIME
                                MAXIMUM       AVERAGE  MAXIMUM  AVERAGE  MAXIMUM
 CP2K                                 1  1.0    0.020    0.024   18.917   18.921
 quickstep_create_force_env           1  2.0    0.007    0.012   11.647   11.651
 qs_init_subsys                       1  3.0    1.447    5.095   11.613   11.613
 parser_read_line                   130  4.0    0.000    0.000   10.150   11.557
 parser_read_line_low                12  5.0    0.011    0.017   10.150   11.557
 broadcast_input_information         12  6.0   10.139   11.546   10.139   11.546
 qs_energies_scf                      1  2.0    0.000    0.000    7.234    7.234
 ls_scf                               1  3.0    0.000    0.000    7.221    7.221
 dbcsr_mm_cannon_multiply           159  6.2    0.034    0.042    4.739    4.761
 ls_scf_init_scf                      1  4.0    0.000    0.000    3.578    3.578
 ls_scf_main                          1  4.0    0.000    0.000    3.367    3.367
 density_matrix_trs4                  4  5.0    0.011    0.018    3.168    3.169
 cannon_multiply_low                159  7.2    0.384    0.674    2.416    2.712
 dbcsr_make_images                  318  7.2    0.001    0.001    1.869    2.190
 make_images                        318  8.2    0.073    0.082    1.868    2.189
 ls_scf_init_matrix_S                 1  5.0    0.000    0.000    1.988    1.988
 qs_ks_update_qs_env                  5  6.2    0.000    0.000    1.616    1.622
 rebuild_ks_matrix                    5  7.2    0.000    0.000    1.606    1.606
 build_dftb_ks_matrix                 5  8.2    0.000    0.000    1.606    1.606
 apply_matrix_preconditioner         10  5.2    0.000    0.000    1.592    1.605
 build_dftb_coulomb                   5  9.2    0.002    0.003    1.603    1.604
 dftb_spme_evaluate                   5 10.2    0.001    0.001    1.597    1.597
 fft_wrap_pw1pw2                     10 11.2    0.000    0.000    1.470    1.593
 fft_wrap_pw1pw2_10                  10 12.2    0.000    0.000    1.470    1.593
 fft3d_ps                            10 13.2    0.001    0.001    1.469    1.592
 ls_scf_initial_guess                 1  5.0    0.000    0.000    1.590    1.590
 ls_scf_qs_atomic_guess               1  6.0    0.000    0.000    1.590    1.590
 yz_to_x                              5 14.2    1.463    1.584    1.463    1.584
 make_images_data                   318  9.2    0.468    1.403    0.468    1.403
 cannon_multiply_low_multrec       1272  8.2    0.002    0.003    1.229    1.308
 cannon_multiply_low_multrec_ma    1272  9.2    1.222    1.302    1.222    1.302
 make_images_sizes                  318  9.2    1.001    1.071    1.001    1.071
 rs_pw_transfer                      10 11.2    0.000    0.000    0.120    0.761
 rs_pw_transfer_RS2PW_10              5 12.2    0.116    0.760    0.116    0.760
 matrix_sqrt_Newton_Schulz            2  6.5    0.002    0.002    0.527    0.527
 lanczos_alg_serial                  18  6.2    0.293    0.305    0.486    0.491
 -------------------------------------------------------------------------------

  **** **** ******  **  PROGRAM ENDED AT                 2015-03-10 13:28:11.242
 ***** ** ***  *** **   PROGRAM RAN ON                                      n255
 **    ****   ******    PROGRAM RAN BY                                     bja39
 ***** **    ** ** **   PROGRAM PROCESS ID                                 97844
  **** **  *******  **  PROGRAM STOPPED IN        /home/dlambrecht/bja39/cp2k/ls
