#     Step Nr.          Time[fs]        Kin.[a.u.]          Temp[K]            Pot.[a.u.]        Cons Qty[a.u.]        UsedTime[s]
         0            0.000000         0.273612846       300.000000000     -1102.629448594     -1102.355835748         0.000000000
         1            0.500000         0.279633819       306.601634956     -1102.634728486     -1102.356032711        40.583830833
         2            1.000000         0.278176228       305.003473822     -1102.643688340     -1102.356285321         4.550788164
         3            1.500000         0.280393422       307.434493169     -1102.653080703     -1102.356547289         4.133002996
         4            2.000000         0.282889483       310.171274373     -1102.655862600     -1102.356593452         4.232770920
         5            2.500000         0.294372846       322.762089451     -1102.653391721     -1102.356505399         4.166515112
         6            3.000000         0.293202260       321.478612240     -1102.644027094     -1102.356292112         4.202132940
         7            3.500000         0.275739443       302.331685464     -1102.631056927     -1102.356023130         4.292839050
         8            4.000000         0.264614578       290.133941926     -1102.619771042     -1102.355795898         4.331632853
         9            4.500000         0.268857948       294.786540957     -1102.613634926     -1102.355689468         4.363913059
        10            5.000000         0.262607548       287.933354688     -1102.612082629     -1102.355666725        14.514095068
        11            5.500000         0.288697192       316.539076623     -1102.616775791     -1102.355783249         4.217893839
        12            6.000000         0.295096611       323.555654327     -1102.622813260     -1102.355937950         4.237766027
        13            6.500000         0.289353988       317.259214513     -1102.629250655     -1102.356081233         4.180560112
        14            7.000000         0.287416783       315.135185816     -1102.637410482     -1102.356246228         4.818986893
        15            7.500000         0.310165102       340.077347134     -1102.641761748     -1102.356328622         4.168068171
        16            8.000000         0.323802738       355.030193039     -1102.645349103     -1102.356402515         4.175095797
        17            8.500000         0.301956869       331.077513369     -1102.645418760     -1102.356418530         4.198438168
        18            9.000000         0.286912673       314.582459387     -1102.641734958     -1102.356310656         4.204360962
        19            9.500000         0.276541909       303.211541879     -1102.635703652     -1102.356123440         5.620459080
        20           10.000000         0.260847091       286.003119568     -1102.628436222     -1102.355915126        16.182567835
        21           10.500000         0.250829117       275.019014201     -1102.621372875     -1102.355688604         4.185313940
        22           11.000000         0.252589683       276.949368852     -1102.619839890     -1102.355630752         4.258463144
        23           11.500000         0.254712048       279.276413907     -1102.626571548     -1102.355823250         4.179895878
        24           12.000000         0.265639894       291.258138799     -1102.636526005     -1102.356020668         5.437041044
        25           12.500000         0.277078124       303.799469240     -1102.645826859     -1102.356189502         5.933998108
        26           13.000000         0.276140999       302.771967280     -1102.652591961     -1102.356272543         4.188079834
        27           13.500000         0.297663960       326.370597892     -1102.655384720     -1102.356219451         4.318550110
        28           14.000000         0.292250722       320.435308020     -1102.655692042     -1102.356103565         4.245359898
        29           14.500000         0.281400579       308.538780515     -1102.654888372     -1102.356028025         4.366974115
        30           15.000000         0.286612224       314.253034784     -1102.651854052     -1102.355941964        15.866235971
        31           15.500000         0.301188497       330.235040006     -1102.649497289     -1102.355883178         4.174720049
        32           16.000000         0.299504682       328.388838431     -1102.646731418     -1102.355818636         4.188439846
        33           16.500000         0.291057519       319.127033791     -1102.645976761     -1102.355750903         4.528199196
        34           17.000000         0.291210761       319.295054188     -1102.647476573     -1102.355705891         4.201364994
        35           17.500000         0.303751951       333.045713162     -1102.652982102     -1102.355823547         4.283592939
        36           18.000000         0.299220135       328.076849909     -1102.659956618     -1102.356048442         5.539623976
        37           18.500000         0.316528355       347.054270140     -1102.662878593     -1102.356180240         4.210894108
        38           19.000000         0.312059887       342.154864434     -1102.660507582     -1102.356202008         4.311928988
        39           19.500000         0.316171730       346.663252855     -1102.656115673     -1102.356078685         4.337195873
        40           20.000000         0.299355453       328.225217581     -1102.648878513     -1102.355890093        14.162218094
        41           20.500000         0.290515955       318.533241367     -1102.643145711     -1102.355773629         4.286093950
        42           21.000000         0.292335239       320.527976526     -1102.641775355     -1102.355839828         4.223648071
        43           21.500000         0.292864229       321.107981564     -1102.641696945     -1102.355896983         4.205495834
        44           22.000000         0.298441806       327.223458795     -1102.641498293     -1102.355927730         4.587435007
        45           22.500000         0.281584967       308.740950200     -1102.641249503     -1102.355973007         4.303593159
        46           23.000000         0.268647469       294.555763959     -1102.638733432     -1102.355935123         4.213079929
        47           23.500000         0.272321768       298.584411354     -1102.640558486     -1102.355980954         4.169939041
        48           24.000000         0.280027629       307.033422904     -1102.643886369     -1102.356039317         4.222687960
        49           24.500000         0.277870190       304.667921267     -1102.647866085     -1102.356127491         4.339947939
