 DBCSR| Multiplication driver                                                SMM
 DBCSR| Multrec recursion limit                                              512
 DBCSR| Multiplication stack size                                           1000
 DBCSR| Multiplication size stacks                                             3
 DBCSR| Use subcommunicators                                                   T
 DBCSR| Use MPI combined types                                                 F
 DBCSR| Use MPI memory allocation                                              T
 DBCSR| Use Communication thread                                               T
 DBCSR| Communication thread load                                             87


  **** **** ******  **  PROGRAM STARTED AT               2015-03-10 10:14:29.162
 ***** ** ***  *** **   PROGRAM STARTED ON                                  n263
 **    ****   ******    PROGRAM STARTED BY                                 bja39
 ***** **    ** ** **   PROGRAM PROCESS ID                                 50649
  **** **  *******  **  PROGRAM STARTED IN      /home/dlambrecht/bja39/cp2k/aimd

 CP2K| version string:                                          CP2K version 2.6
 CP2K| source code revision number:                                  git:9520686
 CP2K| is freely available from                             http://www.cp2k.org/
 CP2K| Program compiled at                          Fri Feb 27 09:44:54 EST 2015
 CP2K| Program compiled on                            login0a.frank.sam.pitt.edu
 CP2K| Program compiled for                                                Frank
 CP2K| Input file name                                        water_cheating.inp
 
 GLOBAL| Force Environment number                                              1
 GLOBAL| Basis set file name                                           HFX_BASIS
 GLOBAL| Geminal file name                                         BASIS_GEMINAL
 GLOBAL| Potential file name                                      GTH_POTENTIALS
 GLOBAL| MM Potential file name                                     MM_POTENTIAL
 GLOBAL| Coordinate file name                                          water.xyz
 GLOBAL| Method name                                                        CP2K
 GLOBAL| Project name                                                      WATER
 GLOBAL| Preferred FFT library                                             FFTW3
 GLOBAL| Preferred diagonalization lib.                                       SL
 GLOBAL| Run type                                                             MD
 GLOBAL| All-to-all communication in single precision                          F
 GLOBAL| FFTs using library dependent lengths                                  F
 GLOBAL| Global print level                                                  LOW
 GLOBAL| Total number of message passing processes                            64
 GLOBAL| Number of threads for this process                                    1
 GLOBAL| This output is from process                                           0

 MEMORY| system memory details [Kb]
 MEMORY|                        rank 0           min           max       average
 MEMORY| MemTotal             32989296      32989296      32989296      32989296
 MEMORY| MemFree               8729408       6217588       8735732       7896832
 MEMORY| Buffers                145756           768        148176        106869
 MEMORY| Cached               18401984      16777544      25109504      19365321
 MEMORY| Slab                  4377404        300496       6304008       4256170
 MEMORY| SReclaimable          3914404        189788       5700584       3816601
 MEMORY| MemLikelyFree        31191552      30978304      31555592      31185623

 
 GENERATE|  Preliminary Number of Bonds generated:                             0
 GENERATE|  Achieved consistency in connectivity generation.

 *******************************************************************************
 *******************************************************************************
 **                                                                           **
 **     #####                         ##              ##                      **
 **    ##   ##            ##          ##              ##                      **
 **   ##     ##                       ##            ######                    **
 **   ##     ##  ##   ##  ##   #####  ##  ##   ####   ##    #####    #####    **
 **   ##     ##  ##   ##  ##  ##      ## ##   ##      ##   ##   ##  ##   ##   **
 **   ##  ## ##  ##   ##  ##  ##      ####     ###    ##   ######   ######    **
 **    ##  ###   ##   ##  ##  ##      ## ##      ##   ##   ##       ##        **
 **     #######   #####   ##   #####  ##  ##  ####    ##    #####   ##        **
 **           ##                                                    ##        **
 **                                                                           **
 **                                                ... make the atoms dance   **
 **                                                                           **
 **            Copyright (C) by CP2K Developers Group (2000 - 2014)           **
 **                                                                           **
 *******************************************************************************


 SCF PARAMETERS         Density guess:                                    ATOMIC
                        --------------------------------------------------------
                        max_scf:                                              30
                        max_scf_history:                                       0
                        max_diis:                                              4
                        --------------------------------------------------------
                        eps_scf:                                        1.00E-06
                        eps_scf_history:                                0.00E+00
                        eps_diis:                                       1.00E-01
                        eps_eigval:                                     1.00E-05
                        --------------------------------------------------------
                        level_shift [a.u.]:                                 0.00
                        --------------------------------------------------------
                        Outer loop SCF in use 
                        No variables optimised in outer loop
                        eps_scf                                         1.00E-06
                        max_scf                                               10
                        No outer loop optimization
                        step_size                                       5.00E-01
 
 MD| Molecular Dynamics Protocol 
 MD| Ensemble Type                                                           NVT
 MD| Number of Time Steps                                                   1000
 MD| Time Step [fs]                                                         0.50
 MD| Temperature [K]                                                      300.00
 MD| Temperature tolerance [K]                                              0.00
 MD| Print MD information every                                        1 step(s)
 MD| File type     Print frequency[steps]                             File names
 MD| Coordinates            1                                    WATER-pos-1.xyz
 MD| Velocities             1                                    WATER-vel-1.xyz
 MD| Energies               1                                       WATER-1.ener
 MD| Dump                   1                                    WATER-1.restart
 
 ROT| Rotational Analysis Info 
 ROT| Principal axes and moments of inertia in atomic units:
 ROT|                                1                 2                 3
 ROT| EIGENVALUES            0.205585958E+09   0.218420757E+09   0.244815972E+09
 ROT|      X                     0.422535725      -0.517084350       0.744370429
 ROT|      Y                     0.905625146       0.208115969      -0.369500797
 ROT|      Z                     0.036147707       0.830247865       0.556221022
 ROT| Numer of Rotovibrational vectors:     6

 Calculation of degrees of freedom
                                                      Number of atoms:       192
                                 Number of Intramolecular constraints:         0
                                 Number of Intermolecular constraints:         0
                                  Invariants(translation + rotations):         0
                                                   Degrees of freedom:       576


 Restraints Information
                                  Number of Intramolecular restraints:         0
                                  Number of Intermolecular restraints:         0

 THERMOSTAT| Thermostat Info for PARTICLES
 THERMOSTAT| End of Thermostat Info for PARTICLES

 ************************** Velocities initialization **************************
 Initial Temperature                                                    300.00 K
 COM velocity:            0.000000000000     -0.000000000000      0.000000000000
 *******************************************************************************


 Number of electrons:                                                        512
 Number of occupied orbitals:                                                256
 Number of molecular orbitals:                                               256

 Number of orbital functions:                                               1472
 Number of independent orbital functions:                                   1472

 Extrapolation method: initial_guess


 SCF WAVEFUNCTION OPTIMIZATION

  ----------------------------------- OT ---------------------------------------

  Allowing for rotations:  F
  Optimizing orbital energies:  F
  Minimizer      : DIIS                : direct inversion
                                         in the iterative subspace
                            using      : -   7 DIIS vectors
                                         - safer DIIS on
  Preconditioner : FULL_SINGLE_INVERSE : inversion of H + eS - 2*(Sc)(c^T*H*c+const)(Sc)^T
  Precond_solver : DEFAULT
  stepsize       :    0.08000000
  energy_gap     :    0.08000000

  eps_taylor     :   0.10000E-15
  max_taylor     :             4

  mixed_precision    : F

  ----------------------------------- OT ---------------------------------------

  Step     Update method      Time    Convergence         Total energy    Change
  ------------------------------------------------------------------------------
     1 OT DIIS     0.80E-01    0.6     0.02979138     -1059.5117346650 -1.06E+03
     2 OT DIIS     0.80E-01    0.5     0.02151348     -1079.6271770551 -2.01E+01
     3 OT DIIS     0.80E-01    0.5     0.01644743     -1090.1857842858 -1.06E+01
     4 OT DIIS     0.80E-01    0.5     0.00993331     -1097.9489835271 -7.76E+00
     5 OT DIIS     0.80E-01    0.5     0.00640250     -1100.1897479015 -2.24E+00
     6 OT DIIS     0.80E-01    0.5     0.00449382     -1101.4259654628 -1.24E+00
     7 OT DIIS     0.80E-01    0.5     0.00313319     -1101.9491507927 -5.23E-01
     8 OT DIIS     0.80E-01    0.5     0.00205843     -1102.2785601265 -3.29E-01
     9 OT DIIS     0.80E-01    0.5     0.00138024     -1102.4307082260 -1.52E-01
    10 OT DIIS     0.80E-01    0.5     0.00110551     -1102.4906904045 -6.00E-02
    11 OT DIIS     0.80E-01    0.5     0.00079426     -1102.5454089479 -5.47E-02
    12 OT DIIS     0.80E-01    0.5     0.00061734     -1102.5751207398 -2.97E-02
    13 OT DIIS     0.80E-01    0.5     0.00042219     -1102.5977421086 -2.26E-02
    14 OT DIIS     0.80E-01    0.5     0.00030276     -1102.6113289652 -1.36E-02
    15 OT DIIS     0.80E-01    0.5     0.00021270     -1102.6186445046 -7.32E-03
    16 OT DIIS     0.80E-01    0.5     0.00016097     -1102.6221779904 -3.53E-03
    17 OT DIIS     0.80E-01    0.5     0.00013225     -1102.6239634904 -1.79E-03
    18 OT DIIS     0.80E-01    0.5     0.00010630     -1102.6251175816 -1.15E-03
    19 OT DIIS     0.80E-01    0.6     0.00008633     -1102.6259836363 -8.66E-04
    20 OT DIIS     0.80E-01    0.5     0.00007396     -1102.6265547353 -5.71E-04
    21 OT DIIS     0.80E-01    0.5     0.00006396     -1102.6269783876 -4.24E-04
    22 OT DIIS     0.80E-01    0.5     0.00005545     -1102.6273343169 -3.56E-04
    23 OT DIIS     0.80E-01    0.5     0.00004838     -1102.6276225421 -2.88E-04
    24 OT DIIS     0.80E-01    0.5     0.00004214     -1102.6278658004 -2.43E-04
    25 OT DIIS     0.80E-01    0.5     0.00003799     -1102.6280438632 -1.78E-04
    26 OT DIIS     0.80E-01    0.5     0.00003481     -1102.6281744627 -1.31E-04
    27 OT DIIS     0.80E-01    0.5     0.00003158     -1102.6282939137 -1.19E-04
    28 OT DIIS     0.80E-01    0.5     0.00002895     -1102.6283997795 -1.06E-04
    29 OT DIIS     0.80E-01    0.5     0.00002694     -1102.6284862521 -8.65E-05
    30 OT DIIS     0.80E-01    0.5     0.00002493     -1102.6285676131 -8.14E-05

  *** SCF run NOT converged ***


  Electronic density on regular grids:       -511.9999999886        0.0000000114
  Core density on regular grids:              511.9999999836       -0.0000000164
  Total charge density on r-space grids:       -0.0000000051
  Total charge density g-space grids:          -0.0000000051

  Overlap energy of the core charge distribution:               0.00000237129466
  Self energy of the core charge distribution:              -2838.21791979121008
  Core Hamiltonian energy:                                    829.95624198968096
  Hartree energy:                                            1177.81191006235008
  Exchange-correlation energy:                               -271.93300064454093
  Dispersion energy:                                           -0.24580160066492

  Total energy:                                             -1102.62856761309013

  outer SCF iter =    1 RMS gradient =   0.25E-04 energy =      -1102.6285676131

  ----------------------------------- OT ---------------------------------------

  Allowing for rotations:  F
  Optimizing orbital energies:  F
  Minimizer      : DIIS                : direct inversion
                                         in the iterative subspace
                            using      : -   7 DIIS vectors
                                         - safer DIIS on
  Preconditioner : FULL_SINGLE_INVERSE : inversion of H + eS - 2*(Sc)(c^T*H*c+const)(Sc)^T
  Precond_solver : DEFAULT
  stepsize       :    0.08000000
  energy_gap     :    0.08000000

  eps_taylor     :   0.10000E-15
  max_taylor     :             4

  mixed_precision    : F

  ----------------------------------- OT ---------------------------------------

  Step     Update method      Time    Convergence         Total energy    Change
  ------------------------------------------------------------------------------
     1 OT DIIS     0.80E-01    1.3     0.00013129     -1102.6286382268 -7.06E-05
     2 OT DIIS     0.80E-01    0.5     0.00008751     -1102.6290682644 -4.30E-04
     3 OT DIIS     0.80E-01    0.5     0.00002260     -1102.6294221575 -3.54E-04
     4 OT DIIS     0.80E-01    0.5     0.00001004     -1102.6294436047 -2.14E-05
     5 OT DIIS     0.80E-01    0.5     0.00000424     -1102.6294476653 -4.06E-06
     6 OT DIIS     0.80E-01    0.5     0.00000175     -1102.6294484309 -7.66E-07
     7 OT DIIS     0.80E-01    0.5     0.00000082     -1102.6294485617 -1.31E-07

  *** SCF run converged in     7 steps ***


  Electronic density on regular grids:       -511.9999999886        0.0000000114
  Core density on regular grids:              511.9999999836       -0.0000000164
  Total charge density on r-space grids:       -0.0000000051
  Total charge density g-space grids:          -0.0000000051

  Overlap energy of the core charge distribution:               0.00000237129466
  Self energy of the core charge distribution:              -2838.21791979121008
  Core Hamiltonian energy:                                    829.95792476656379
  Hartree energy:                                            1177.81068023461239
  Exchange-correlation energy:                               -271.93433454231092
  Dispersion energy:                                           -0.24580160066492

  Total energy:                                             -1102.62944856171498

  outer SCF iter =    2 RMS gradient =   0.82E-06 energy =      -1102.6294485617
  outer SCF loop converged in   2 iterations or   37 steps

  
  Eigenvalues of the occupied subspace spin            1
 ---------------------------------------------
      -0.81891446     -0.81673141     -0.81456334     -0.81283761
      -0.81110286     -0.80936816     -0.80894703     -0.80816639
      -0.80798687     -0.80614228     -0.80419131     -0.80224494
      -0.80122070     -0.80076860     -0.79915728     -0.79795109
      -0.79769666     -0.79565650     -0.79505972     -0.79333710
      -0.79291697     -0.79205858     -0.79134148     -0.79093820
      -0.78922757     -0.78878486     -0.78848976     -0.78816399
      -0.78673276     -0.78421737     -0.78288772     -0.78215182
      -0.78171288     -0.78159676     -0.78122840     -0.78061236
      -0.78008842     -0.77877245     -0.77847392     -0.77757407
      -0.77640667     -0.77562946     -0.77456890     -0.77403022
      -0.77291664     -0.77146944     -0.77090691     -0.76957042
      -0.76895285     -0.76803365     -0.76678436     -0.76549998
      -0.76397491     -0.76341471     -0.75969540     -0.75734041
      -0.75601897     -0.75442610     -0.75312867     -0.75039068
      -0.74898505     -0.74579381     -0.73863673     -0.73191682
      -0.38263144     -0.37282255     -0.37064098     -0.37040783
      -0.36942485     -0.36759824     -0.36642664     -0.36573770
      -0.36467212     -0.36416976     -0.36389220     -0.36224227
      -0.36007568     -0.35963606     -0.35846380     -0.35739733
      -0.35707603     -0.35675035     -0.35475859     -0.35378854
      -0.35293869     -0.35187336     -0.35059068     -0.35011960
      -0.34766931     -0.34729193     -0.34659302     -0.34636982
      -0.34435501     -0.34423531     -0.34345730     -0.34281267
      -0.34150664     -0.34047946     -0.33969062     -0.33867633
      -0.33850659     -0.33745461     -0.33724942     -0.33679298
      -0.33645785     -0.33507365     -0.33436393     -0.33368495
      -0.33282026     -0.33167279     -0.33072597     -0.32977614
      -0.32894844     -0.32840077     -0.32648886     -0.32585021
      -0.32486651     -0.32205509     -0.32175378     -0.31721960
      -0.31637759     -0.31416007     -0.31349885     -0.30862632
      -0.30845867     -0.30499942     -0.30030196     -0.28768276
      -0.26427909     -0.26024217     -0.25716927     -0.25670650
      -0.25459606     -0.25279945     -0.25105736     -0.24856308
      -0.24753301     -0.24429473     -0.24220530     -0.24116298
      -0.23714929     -0.23562717     -0.23291249     -0.23163941
      -0.23043730     -0.22963247     -0.22903284     -0.22833990
      -0.22537939     -0.22384593     -0.22012426     -0.21912220
      -0.21770311     -0.21647921     -0.21589213     -0.21270630
      -0.21176200     -0.21018302     -0.20801147     -0.20663006
      -0.20551138     -0.20472581     -0.20417081     -0.20384861
      -0.20097347     -0.20063008     -0.19861379     -0.19694192
      -0.19637698     -0.19489230     -0.19351078     -0.19257467
      -0.19152293     -0.19061389     -0.18866174     -0.18729371
      -0.18641170     -0.18532129     -0.18427678     -0.18239692
      -0.18130290     -0.17965860     -0.17940155     -0.17661564
      -0.17592905     -0.17442714     -0.17208477     -0.17155532
      -0.16997662     -0.16893070     -0.15997830     -0.15355665
      -0.15276164     -0.15122042     -0.14958400     -0.14856284
      -0.14821724     -0.14789956     -0.14748740     -0.14641192
      -0.14587563     -0.14394080     -0.14304579     -0.14232431
      -0.14198583     -0.14060270     -0.14017828     -0.13857900
      -0.13817554     -0.13763938     -0.13683556     -0.13660968
      -0.13543358     -0.13522683     -0.13497940     -0.13414497
      -0.13384138     -0.13334465     -0.13317101     -0.13232941
      -0.13150023     -0.13064805     -0.13057008     -0.13002307
      -0.12881209     -0.12820216     -0.12763756     -0.12635705
      -0.12588412     -0.12559192     -0.12496010     -0.12450245
      -0.12315982     -0.12228350     -0.12154151     -0.12090036
      -0.12060728     -0.12022928     -0.11972684     -0.11874361
      -0.11852555     -0.11801646     -0.11749707     -0.11658528
      -0.11642882     -0.11610780     -0.11370467     -0.11125155
      -0.11048373     -0.10987949     -0.10813065     -0.10731821
      -0.10474082     -0.10070132     -0.09769358     -0.09583102
 Fermi Energy [eV] :   -2.607695
  
  Lowest Eigenvalues of the unoccupied subspace spin            1
 -----------------------------------------------------
  Reached convergence in          123  iterations 
       0.07667537      0.11892728      0.12589538      0.12946460
  
 HOMO - LUMO gap [eV] :    4.694137

 ENERGY| Total FORCE_EVAL ( QS ) energy (a.u.):            -1102.629448593508414

 
 MD_ENERGIES| Initialization proceeding
 

 ******************************** GO CP2K GO! **********************************
 INITIAL POTENTIAL ENERGY[hartree]     =                     -0.110262944859E+04
 INITIAL KINETIC ENERGY[hartree]       =                      0.273612845660E+00
 INITIAL TEMPERATURE[K]                =                                 300.000
 INITIAL VOLUME[bohr^3]                =                      0.129288945809E+05
 INITIAL CELL LNTHS[bohr]   =      0.2347040E+02   0.2347040E+02   0.2347040E+02
 INITIAL CELL ANGLS[deg]    =      0.9000000E+02   0.9000000E+02   0.9000000E+02
 ******************************** GO CP2K GO! **********************************

 Number of electrons:                                                        512
 Number of occupied orbitals:                                                256
 Number of molecular orbitals:                                               256

 Number of orbital functions:                                               1472
 Number of independent orbital functions:                                   1472

 Extrapolation method: ASPC


 SCF WAVEFUNCTION OPTIMIZATION

  ----------------------------------- OT ---------------------------------------

  Allowing for rotations:  F
  Optimizing orbital energies:  F
  Minimizer      : DIIS                : direct inversion
                                         in the iterative subspace
                            using      : -   7 DIIS vectors
                                         - safer DIIS on
  Preconditioner : FULL_SINGLE_INVERSE : inversion of H + eS - 2*(Sc)(c^T*H*c+const)(Sc)^T
  Precond_solver : DEFAULT
  stepsize       :    0.08000000
  energy_gap     :    0.08000000

  eps_taylor     :   0.10000E-15
  max_taylor     :             4

  mixed_precision    : F

  ----------------------------------- OT ---------------------------------------

  Step     Update method      Time    Convergence         Total energy    Change
  ------------------------------------------------------------------------------
     1 OT DIIS     0.80E-01    0.7     0.00034046     -1102.6304176092 -1.10E+03
     2 OT DIIS     0.80E-01    0.5     0.00019745     -1102.6331037508 -2.69E-03
     3 OT DIIS     0.80E-01    0.5     0.00007577     -1102.6344773214 -1.37E-03
     4 OT DIIS     0.80E-01    0.5     0.00002954     -1102.6346907057 -2.13E-04
     5 OT DIIS     0.80E-01    0.5     0.00000773     -1102.6347259711 -3.53E-05
     6 OT DIIS     0.80E-01    0.5     0.00000328     -1102.6347280326 -2.06E-06
     7 OT DIIS     0.80E-01    0.5     0.00000122     -1102.6347284208 -3.88E-07
     8 OT DIIS     0.80E-01    0.5     0.00000045     -1102.6347284788 -5.80E-08

  *** SCF run converged in     8 steps ***


  Electronic density on regular grids:       -511.9999999886        0.0000000114
  Core density on regular grids:              511.9999999835       -0.0000000165
  Total charge density on r-space grids:       -0.0000000051
  Total charge density g-space grids:          -0.0000000051

  Overlap energy of the core charge distribution:               0.00000225102562
  Self energy of the core charge distribution:              -2838.21791979121008
  Core Hamiltonian energy:                                    829.71048620363536
  Hartree energy:                                            1177.98225822986410
  Exchange-correlation energy:                               -271.86378560935015
  Dispersion energy:                                           -0.24576976278297

  Total energy:                                             -1102.63472847881803

  outer SCF iter =    1 RMS gradient =   0.45E-06 energy =      -1102.6347284788
  outer SCF loop converged in   1 iterations or    8 steps


 ENERGY| Total FORCE_EVAL ( QS ) energy (a.u.):            -1102.634728486413678


 *******************************************************************************
 ENSEMBLE TYPE                =                                              NVT
 STEP NUMBER                  =                                                1
 TIME [fs]                    =                                         0.500000
 CONSERVED QUANTITY [hartree] =                              -0.110235603271E+04

                                              INSTANTANEOUS             AVERAGES
 CPU TIME [s]                 =                       40.58                40.58
 ENERGY DRIFT PER ATOM [K]    =         -0.323937263780E+00   0.000000000000E+00
 POTENTIAL ENERGY[hartree]    =         -0.110263472849E+04  -0.110263472849E+04
 KINETIC ENERGY [hartree]     =          0.279633819414E+00   0.279633819414E+00
 TEMPERATURE [K]              =                     306.602              306.602
 *******************************************************************************


 Number of electrons:                                                        512
 Number of occupied orbitals:                                                256
 Number of molecular orbitals:                                               256

 Number of orbital functions:                                               1472
 Number of independent orbital functions:                                   1472

 Extrapolation method: ASPC


 SCF WAVEFUNCTION OPTIMIZATION

  ----------------------------------- OT ---------------------------------------

  Allowing for rotations:  F
  Optimizing orbital energies:  F
  Minimizer      : DIIS                : direct inversion
                                         in the iterative subspace
                            using      : -   7 DIIS vectors
                                         - safer DIIS on
  Preconditioner : FULL_SINGLE_INVERSE : inversion of H + eS - 2*(Sc)(c^T*H*c+const)(Sc)^T
  Precond_solver : DEFAULT
  stepsize       :    0.08000000
  energy_gap     :    0.08000000

  eps_taylor     :   0.10000E-15
  max_taylor     :             4

  mixed_precision    : F

  ----------------------------------- OT ---------------------------------------

  Step     Update method      Time    Convergence         Total energy    Change
  ------------------------------------------------------------------------------
     1 OT DIIS     0.80E-01    0.5     0.00018397     -1102.6424921757 -1.10E+03
     2 OT DIIS     0.80E-01    0.5     0.00010287     -1102.6432649586 -7.73E-04
     3 OT DIIS     0.80E-01    0.5     0.00003893     -1102.6436235978 -3.59E-04
     4 OT DIIS     0.80E-01    0.5     0.00001574     -1102.6436776335 -5.40E-05
     5 OT DIIS     0.80E-01    0.5     0.00000405     -1102.6436876536 -1.00E-05
     6 OT DIIS     0.80E-01    0.5     0.00000164     -1102.6436882286 -5.75E-07
     7 OT DIIS     0.80E-01    0.5     0.00000063     -1102.6436883249 -9.63E-08

  *** SCF run converged in     7 steps ***


  Electronic density on regular grids:       -511.9999999887        0.0000000113
  Core density on regular grids:              511.9999999836       -0.0000000164
  Total charge density on r-space grids:       -0.0000000052
  Total charge density g-space grids:          -0.0000000052

  Overlap energy of the core charge distribution:               0.00000200487868
  Self energy of the core charge distribution:              -2838.21791979121008
  Core Hamiltonian energy:                                    829.17514810758746
  Hartree energy:                                            1178.35483062658022
  Exchange-correlation energy:                               -271.71002372693727
  Dispersion energy:                                           -0.24572554576178

  Total energy:                                             -1102.64368832486275

  outer SCF iter =    1 RMS gradient =   0.63E-06 energy =      -1102.6436883249
  outer SCF loop converged in   1 iterations or    7 steps


 ENERGY| Total FORCE_EVAL ( QS ) energy (a.u.):            -1102.643688339979008


 *******************************************************************************
 ENSEMBLE TYPE                =                                              NVT
 STEP NUMBER                  =                                                2
 TIME [fs]                    =                                         1.000000
 CONSERVED QUANTITY [hartree] =                              -0.110235628532E+04

                                              INSTANTANEOUS             AVERAGES
 CPU TIME [s]                 =                        4.55                22.57
 ENERGY DRIFT PER ATOM [K]    =         -0.739395565748E+00  -0.369697782874E+00
 POTENTIAL ENERGY[hartree]    =         -0.110264368834E+04  -0.110263920841E+04
 KINETIC ENERGY [hartree]     =          0.278176228029E+00   0.278905023721E+00
 TEMPERATURE [K]              =                     305.003              305.803
 *******************************************************************************


 Number of electrons:                                                        512
 Number of occupied orbitals:                                                256
 Number of molecular orbitals:                                               256

 Number of orbital functions:                                               1472
 Number of independent orbital functions:                                   1472

 Extrapolation method: ASPC


 SCF WAVEFUNCTION OPTIMIZATION

  ----------------------------------- OT ---------------------------------------

  Allowing for rotations:  F
  Optimizing orbital energies:  F
  Minimizer      : DIIS                : direct inversion
                                         in the iterative subspace
                            using      : -   7 DIIS vectors
                                         - safer DIIS on
  Preconditioner : FULL_SINGLE_INVERSE : inversion of H + eS - 2*(Sc)(c^T*H*c+const)(Sc)^T
  Precond_solver : DEFAULT
  stepsize       :    0.08000000
  energy_gap     :    0.08000000

  eps_taylor     :   0.10000E-15
  max_taylor     :             4

  mixed_precision    : F

  ----------------------------------- OT ---------------------------------------

  Step     Update method      Time    Convergence         Total energy    Change
  ------------------------------------------------------------------------------
     1 OT DIIS     0.80E-01    0.5     0.00018090     -1102.6518939866 -1.10E+03
     2 OT DIIS     0.80E-01    0.5     0.00010306     -1102.6526467767 -7.53E-04
     3 OT DIIS     0.80E-01    0.5     0.00003970     -1102.6530133342 -3.67E-04
     4 OT DIIS     0.80E-01    0.5     0.00001592     -1102.6530698073 -5.65E-05
     5 OT DIIS     0.80E-01    0.5     0.00000398     -1102.6530800428 -1.02E-05
     6 OT DIIS     0.80E-01    0.5     0.00000160     -1102.6530805985 -5.56E-07
     7 OT DIIS     0.80E-01    0.5     0.00000063     -1102.6530806876 -8.92E-08

  *** SCF run converged in     7 steps ***


  Electronic density on regular grids:       -511.9999999887        0.0000000113
  Core density on regular grids:              511.9999999836       -0.0000000164
  Total charge density on r-space grids:       -0.0000000052
  Total charge density g-space grids:          -0.0000000052

  Overlap energy of the core charge distribution:               0.00000171680907
  Self energy of the core charge distribution:              -2838.21791979121008
  Core Hamiltonian energy:                                    828.50401944784187
  Hartree energy:                                            1178.82314837448712
  Exchange-correlation energy:                               -271.51664546171378
  Dispersion energy:                                           -0.24568497384009

  Total energy:                                             -1102.65308068762579

  outer SCF iter =    1 RMS gradient =   0.63E-06 energy =      -1102.6530806876
  outer SCF loop converged in   1 iterations or    7 steps


 ENERGY| Total FORCE_EVAL ( QS ) energy (a.u.):            -1102.653080702638363


 *******************************************************************************
 ENSEMBLE TYPE                =                                              NVT
 STEP NUMBER                  =                                                3
 TIME [fs]                    =                                         1.500000
 CONSERVED QUANTITY [hartree] =                              -0.110235654729E+04

                                              INSTANTANEOUS             AVERAGES
 CPU TIME [s]                 =                        4.13                16.42
 ENERGY DRIFT PER ATOM [K]    =         -0.117024243094E+01  -0.636545998897E+00
 POTENTIAL ENERGY[hartree]    =         -0.110265308070E+04  -0.110264383251E+04
 KINETIC ENERGY [hartree]     =          0.280393421766E+00   0.279401156403E+00
 TEMPERATURE [K]              =                     307.434              306.347
 *******************************************************************************


 Number of electrons:                                                        512
 Number of occupied orbitals:                                                256
 Number of molecular orbitals:                                               256

 Number of orbital functions:                                               1472
 Number of independent orbital functions:                                   1472

 Extrapolation method: ASPC


 SCF WAVEFUNCTION OPTIMIZATION

  ----------------------------------- OT ---------------------------------------

  Allowing for rotations:  F
  Optimizing orbital energies:  F
  Minimizer      : DIIS                : direct inversion
                                         in the iterative subspace
                            using      : -   7 DIIS vectors
                                         - safer DIIS on
  Preconditioner : FULL_SINGLE_INVERSE : inversion of H + eS - 2*(Sc)(c^T*H*c+const)(Sc)^T
  Precond_solver : DEFAULT
  stepsize       :    0.08000000
  energy_gap     :    0.08000000

  eps_taylor     :   0.10000E-15
  max_taylor     :             4

  mixed_precision    : F

  ----------------------------------- OT ---------------------------------------

  Step     Update method      Time    Convergence         Total energy    Change
  ------------------------------------------------------------------------------
     1 OT DIIS     0.80E-01    0.5     0.00019361     -1102.6544650065 -1.10E+03
     2 OT DIIS     0.80E-01    0.5     0.00011267     -1102.6553349943 -8.70E-04
     3 OT DIIS     0.80E-01    0.5     0.00004336     -1102.6557823844 -4.47E-04
     4 OT DIIS     0.80E-01    0.5     0.00001677     -1102.6558505903 -6.82E-05
     5 OT DIIS     0.80E-01    0.5     0.00000434     -1102.6558618147 -1.12E-05
     6 OT DIIS     0.80E-01    0.5     0.00000173     -1102.6558624762 -6.62E-07
     7 OT DIIS     0.80E-01    0.5     0.00000068     -1102.6558625817 -1.06E-07

  *** SCF run converged in     7 steps ***


  Electronic density on regular grids:       -511.9999999888        0.0000000112
  Core density on regular grids:              511.9999999836       -0.0000000164
  Total charge density on r-space grids:       -0.0000000052
  Total charge density g-space grids:          -0.0000000052

  Overlap energy of the core charge distribution:               0.00000149167359
  Self energy of the core charge distribution:              -2838.21791979121008
  Core Hamiltonian energy:                                    827.80093441798908
  Hartree energy:                                            1179.31888484035335
  Exchange-correlation energy:                               -271.31214076109325
  Dispersion energy:                                           -0.24562277940910

  Total energy:                                             -1102.65586258169651

  outer SCF iter =    1 RMS gradient =   0.68E-06 energy =      -1102.6558625817
  outer SCF loop converged in   1 iterations or    7 steps


 ENERGY| Total FORCE_EVAL ( QS ) energy (a.u.):            -1102.655862599622651


 *******************************************************************************
 ENSEMBLE TYPE                =                                              NVT
 STEP NUMBER                  =                                                4
 TIME [fs]                    =                                         2.000000
 CONSERVED QUANTITY [hartree] =                              -0.110235659345E+04

                                              INSTANTANEOUS             AVERAGES
 CPU TIME [s]                 =                        4.23                13.38
 ENERGY DRIFT PER ATOM [K]    =         -0.124616516877E+01  -0.788950791365E+00
 POTENTIAL ENERGY[hartree]    =         -0.110265586260E+04  -0.110264684003E+04
 KINETIC ENERGY [hartree]     =          0.282889483410E+00   0.280273238155E+00
 TEMPERATURE [K]              =                     310.171              307.303
 *******************************************************************************


 Number of electrons:                                                        512
 Number of occupied orbitals:                                                256
 Number of molecular orbitals:                                               256

 Number of orbital functions:                                               1472
 Number of independent orbital functions:                                   1472

 Extrapolation method: ASPC


 SCF WAVEFUNCTION OPTIMIZATION

  ----------------------------------- OT ---------------------------------------

  Allowing for rotations:  F
  Optimizing orbital energies:  F
  Minimizer      : DIIS                : direct inversion
                                         in the iterative subspace
                            using      : -   7 DIIS vectors
                                         - safer DIIS on
  Preconditioner : FULL_SINGLE_INVERSE : inversion of H + eS - 2*(Sc)(c^T*H*c+const)(Sc)^T
  Precond_solver : DEFAULT
  stepsize       :    0.08000000
  energy_gap     :    0.08000000

  eps_taylor     :   0.10000E-15
  max_taylor     :             4

  mixed_precision    : F

  ----------------------------------- OT ---------------------------------------

  Step     Update method      Time    Convergence         Total energy    Change
  ------------------------------------------------------------------------------
     1 OT DIIS     0.80E-01    0.5     0.00022861     -1102.6514523414 -1.10E+03
     2 OT DIIS     0.80E-01    0.5     0.00013256     -1102.6526648238 -1.21E-03
     3 OT DIIS     0.80E-01    0.5     0.00005022     -1102.6532843302 -6.20E-04
     4 OT DIIS     0.80E-01    0.5     0.00001980     -1102.6533749798 -9.06E-05
     5 OT DIIS     0.80E-01    0.5     0.00000507     -1102.6533906477 -1.57E-05
     6 OT DIIS     0.80E-01    0.5     0.00000207     -1102.6533915442 -8.97E-07
     7 OT DIIS     0.80E-01    0.5     0.00000080     -1102.6533916961 -1.52E-07

  *** SCF run converged in     7 steps ***


  Electronic density on regular grids:       -511.9999999888        0.0000000112
  Core density on regular grids:              511.9999999836       -0.0000000164
  Total charge density on r-space grids:       -0.0000000052
  Total charge density g-space grids:          -0.0000000052

  Overlap energy of the core charge distribution:               0.00000131041749
  Self energy of the core charge distribution:              -2838.21791979121008
  Core Hamiltonian energy:                                    827.10380719749492
  Hartree energy:                                            1179.81421393304754
  Exchange-correlation energy:                               -271.10793511118743
  Dispersion energy:                                           -0.24555923466282

  Total energy:                                             -1102.65339169610024

  outer SCF iter =    1 RMS gradient =   0.80E-06 energy =      -1102.6533916961
  outer SCF loop converged in   1 iterations or    7 steps


 ENERGY| Total FORCE_EVAL ( QS ) energy (a.u.):            -1102.653391721137496


 *******************************************************************************
 ENSEMBLE TYPE                =                                              NVT
 STEP NUMBER                  =                                                5
 TIME [fs]                    =                                         2.500000
 CONSERVED QUANTITY [hartree] =                              -0.110235650540E+04

                                              INSTANTANEOUS             AVERAGES
 CPU TIME [s]                 =                        4.17                11.53
 ENERGY DRIFT PER ATOM [K]    =         -0.110134812105E+01  -0.851430257303E+00
 POTENTIAL ENERGY[hartree]    =         -0.110265339172E+04  -0.110264815037E+04
 KINETIC ENERGY [hartree]     =          0.294372845886E+00   0.283093159701E+00
 TEMPERATURE [K]              =                     322.762              310.395
 *******************************************************************************


 Number of electrons:                                                        512
 Number of occupied orbitals:                                                256
 Number of molecular orbitals:                                               256

 Number of orbital functions:                                               1472
 Number of independent orbital functions:                                   1472

 Extrapolation method: ASPC


 SCF WAVEFUNCTION OPTIMIZATION

  ----------------------------------- OT ---------------------------------------

  Allowing for rotations:  F
  Optimizing orbital energies:  F
  Minimizer      : DIIS                : direct inversion
                                         in the iterative subspace
                            using      : -   7 DIIS vectors
                                         - safer DIIS on
  Preconditioner : FULL_SINGLE_INVERSE : inversion of H + eS - 2*(Sc)(c^T*H*c+const)(Sc)^T
  Precond_solver : DEFAULT
  stepsize       :    0.08000000
  energy_gap     :    0.08000000

  eps_taylor     :   0.10000E-15
  max_taylor     :             4

  mixed_precision    : F

  ----------------------------------- OT ---------------------------------------

  Step     Update method      Time    Convergence         Total energy    Change
  ------------------------------------------------------------------------------
     1 OT DIIS     0.80E-01    0.5     0.00020953     -1102.6424123314 -1.10E+03
     2 OT DIIS     0.80E-01    0.5     0.00012081     -1102.6434263950 -1.01E-03
     3 OT DIIS     0.80E-01    0.5     0.00004715     -1102.6439331642 -5.07E-04
     4 OT DIIS     0.80E-01    0.5     0.00001836     -1102.6440126540 -7.95E-05
     5 OT DIIS     0.80E-01    0.5     0.00000474     -1102.6440261557 -1.35E-05
     6 OT DIIS     0.80E-01    0.5     0.00000188     -1102.6440269494 -7.94E-07
     7 OT DIIS     0.80E-01    0.5     0.00000073     -1102.6440270737 -1.24E-07

  *** SCF run converged in     7 steps ***


  Electronic density on regular grids:       -511.9999999888        0.0000000112
  Core density on regular grids:              511.9999999835       -0.0000000165
  Total charge density on r-space grids:       -0.0000000052
  Total charge density g-space grids:          -0.0000000052

  Overlap energy of the core charge distribution:               0.00000119038032
  Self energy of the core charge distribution:              -2838.21791979121008
  Core Hamiltonian energy:                                    826.46721336508813
  Hartree energy:                                            1180.27127617471069
  Exchange-correlation energy:                               -270.91907959121198
  Dispersion energy:                                           -0.24551842150312

  Total energy:                                             -1102.64402707374620

  outer SCF iter =    1 RMS gradient =   0.73E-06 energy =      -1102.6440270737
  outer SCF loop converged in   1 iterations or    7 steps


 ENERGY| Total FORCE_EVAL ( QS ) energy (a.u.):            -1102.644027094107969


 *******************************************************************************
 ENSEMBLE TYPE                =                                              NVT
 STEP NUMBER                  =                                                6
 TIME [fs]                    =                                         3.000000
 CONSERVED QUANTITY [hartree] =                              -0.110235629211E+04

                                              INSTANTANEOUS             AVERAGES
 CPU TIME [s]                 =                        4.20                10.31
 ENERGY DRIFT PER ATOM [K]    =         -0.750563953824E+00  -0.834619206723E+00
 POTENTIAL ENERGY[hartree]    =         -0.110264402709E+04  -0.110264746316E+04
 KINETIC ENERGY [hartree]     =          0.293202259712E+00   0.284778009703E+00
 TEMPERATURE [K]              =                     321.479              312.242
 *******************************************************************************


 Number of electrons:                                                        512
 Number of occupied orbitals:                                                256
 Number of molecular orbitals:                                               256

 Number of orbital functions:                                               1472
 Number of independent orbital functions:                                   1472

 Extrapolation method: ASPC


 SCF WAVEFUNCTION OPTIMIZATION

  ----------------------------------- OT ---------------------------------------

  Allowing for rotations:  F
  Optimizing orbital energies:  F
  Minimizer      : DIIS                : direct inversion
                                         in the iterative subspace
                            using      : -   7 DIIS vectors
                                         - safer DIIS on
  Preconditioner : FULL_SINGLE_INVERSE : inversion of H + eS - 2*(Sc)(c^T*H*c+const)(Sc)^T
  Precond_solver : DEFAULT
  stepsize       :    0.08000000
  energy_gap     :    0.08000000

  eps_taylor     :   0.10000E-15
  max_taylor     :             4

  mixed_precision    : F

  ----------------------------------- OT ---------------------------------------

  Step     Update method      Time    Convergence         Total energy    Change
  ------------------------------------------------------------------------------
     1 OT DIIS     0.80E-01    0.5     0.00020751     -1102.6294593483 -1.10E+03
     2 OT DIIS     0.80E-01    0.5     0.00012025     -1102.6304599598 -1.00E-03
     3 OT DIIS     0.80E-01    0.5     0.00004428     -1102.6309732016 -5.13E-04
     4 OT DIIS     0.80E-01    0.5     0.00001799     -1102.6310430058 -6.98E-05
     5 OT DIIS     0.80E-01    0.5     0.00000474     -1102.6310559825 -1.30E-05
     6 OT DIIS     0.80E-01    0.5     0.00000188     -1102.6310567803 -7.98E-07
     7 OT DIIS     0.80E-01    0.5     0.00000076     -1102.6310569049 -1.25E-07

  *** SCF run converged in     7 steps ***


  Electronic density on regular grids:       -511.9999999889        0.0000000111
  Core density on regular grids:              511.9999999835       -0.0000000165
  Total charge density on r-space grids:       -0.0000000053
  Total charge density g-space grids:          -0.0000000053

  Overlap energy of the core charge distribution:               0.00000109908053
  Self energy of the core charge distribution:              -2838.21791979121008
  Core Hamiltonian energy:                                    825.89433108521439
  Hartree energy:                                            1180.68661334441072
  Exchange-correlation energy:                               -270.74857995835180
  Dispersion energy:                                           -0.24550268400892

  Total energy:                                             -1102.63105690486509

  outer SCF iter =    1 RMS gradient =   0.76E-06 energy =      -1102.6310569049
  outer SCF loop converged in   1 iterations or    7 steps


 ENERGY| Total FORCE_EVAL ( QS ) energy (a.u.):            -1102.631056927187046


 *******************************************************************************
 ENSEMBLE TYPE                =                                              NVT
 STEP NUMBER                  =                                                7
 TIME [fs]                    =                                         3.500000
 CONSERVED QUANTITY [hartree] =                              -0.110235602313E+04

                                              INSTANTANEOUS             AVERAGES
 CPU TIME [s]                 =                        4.29                 9.45
 ENERGY DRIFT PER ATOM [K]    =         -0.308179190802E+00  -0.759413490163E+00
 POTENTIAL ENERGY[hartree]    =         -0.110263105693E+04  -0.110264511941E+04
 KINETIC ENERGY [hartree]     =          0.275739442643E+00   0.283486785837E+00
 TEMPERATURE [K]              =                     302.332              310.826
 *******************************************************************************


 Number of electrons:                                                        512
 Number of occupied orbitals:                                                256
 Number of molecular orbitals:                                               256

 Number of orbital functions:                                               1472
 Number of independent orbital functions:                                   1472

 Extrapolation method: ASPC


 SCF WAVEFUNCTION OPTIMIZATION

  ----------------------------------- OT ---------------------------------------

  Allowing for rotations:  F
  Optimizing orbital energies:  F
  Minimizer      : DIIS                : direct inversion
                                         in the iterative subspace
                            using      : -   7 DIIS vectors
                                         - safer DIIS on
  Preconditioner : FULL_SINGLE_INVERSE : inversion of H + eS - 2*(Sc)(c^T*H*c+const)(Sc)^T
  Precond_solver : DEFAULT
  stepsize       :    0.08000000
  energy_gap     :    0.08000000

  eps_taylor     :   0.10000E-15
  max_taylor     :             4

  mixed_precision    : F

  ----------------------------------- OT ---------------------------------------

  Step     Update method      Time    Convergence         Total energy    Change
  ------------------------------------------------------------------------------
     1 OT DIIS     0.80E-01    0.5     0.00019687     -1102.6183234827 -1.10E+03
     2 OT DIIS     0.80E-01    0.5     0.00011474     -1102.6192250310 -9.02E-04
     3 OT DIIS     0.80E-01    0.5     0.00004320     -1102.6196920603 -4.67E-04
     4 OT DIIS     0.80E-01    0.5     0.00001706     -1102.6197585650 -6.65E-05
     5 OT DIIS     0.80E-01    0.5     0.00000463     -1102.6197701469 -1.16E-05
     6 OT DIIS     0.80E-01    0.5     0.00000190     -1102.6197708948 -7.48E-07
     7 OT DIIS     0.80E-01    0.5     0.00000075     -1102.6197710204 -1.26E-07

  *** SCF run converged in     7 steps ***


  Electronic density on regular grids:       -511.9999999889        0.0000000111
  Core density on regular grids:              511.9999999836       -0.0000000164
  Total charge density on r-space grids:       -0.0000000052
  Total charge density g-space grids:          -0.0000000052

  Overlap energy of the core charge distribution:               0.00000105926528
  Self energy of the core charge distribution:              -2838.21791979121008
  Core Hamiltonian energy:                                    825.52878485700137
  Hartree energy:                                            1180.95443026678004
  Exchange-correlation energy:                               -270.63956633035781
  Dispersion energy:                                           -0.24550108190748

  Total energy:                                             -1102.61977102042852

  outer SCF iter =    1 RMS gradient =   0.75E-06 energy =      -1102.6197710204
  outer SCF loop converged in   1 iterations or    7 steps


 ENERGY| Total FORCE_EVAL ( QS ) energy (a.u.):            -1102.619771042113143


 *******************************************************************************
 ENSEMBLE TYPE                =                                              NVT
 STEP NUMBER                  =                                                8
 TIME [fs]                    =                                         4.000000
 CONSERVED QUANTITY [hartree] =                              -0.110235579590E+04

                                              INSTANTANEOUS             AVERAGES
 CPU TIME [s]                 =                        4.33                 8.81
 ENERGY DRIFT PER ATOM [K]    =          0.655388500779E-01  -0.656294447633E+00
 POTENTIAL ENERGY[hartree]    =         -0.110261977104E+04  -0.110264195086E+04
 KINETIC ENERGY [hartree]     =          0.264614578243E+00   0.281127759888E+00
 TEMPERATURE [K]              =                     290.134              308.240
 *******************************************************************************


 Number of electrons:                                                        512
 Number of occupied orbitals:                                                256
 Number of molecular orbitals:                                               256

 Number of orbital functions:                                               1472
 Number of independent orbital functions:                                   1472

 Extrapolation method: ASPC


 SCF WAVEFUNCTION OPTIMIZATION

  ----------------------------------- OT ---------------------------------------

  Allowing for rotations:  F
  Optimizing orbital energies:  F
  Minimizer      : DIIS                : direct inversion
                                         in the iterative subspace
                            using      : -   7 DIIS vectors
                                         - safer DIIS on
  Preconditioner : FULL_SINGLE_INVERSE : inversion of H + eS - 2*(Sc)(c^T*H*c+const)(Sc)^T
  Precond_solver : DEFAULT
  stepsize       :    0.08000000
  energy_gap     :    0.08000000

  eps_taylor     :   0.10000E-15
  max_taylor     :             4

  mixed_precision    : F

  ----------------------------------- OT ---------------------------------------

  Step     Update method      Time    Convergence         Total energy    Change
  ------------------------------------------------------------------------------
     1 OT DIIS     0.80E-01    0.5     0.00020268     -1102.6120648131 -1.10E+03
     2 OT DIIS     0.80E-01    0.5     0.00011995     -1102.6130303272 -9.66E-04
     3 OT DIIS     0.80E-01    0.5     0.00004218     -1102.6135587297 -5.28E-04
     4 OT DIIS     0.80E-01    0.5     0.00001726     -1102.6136222582 -6.35E-05
     5 OT DIIS     0.80E-01    0.5     0.00000455     -1102.6136340685 -1.18E-05
     6 OT DIIS     0.80E-01    0.5     0.00000184     -1102.6136347884 -7.20E-07
     7 OT DIIS     0.80E-01    0.5     0.00000074     -1102.6136349056 -1.17E-07

  *** SCF run converged in     7 steps ***


  Electronic density on regular grids:       -511.9999999889        0.0000000111
  Core density on regular grids:              511.9999999836       -0.0000000164
  Total charge density on r-space grids:       -0.0000000053
  Total charge density g-space grids:          -0.0000000053

  Overlap energy of the core charge distribution:               0.00000104244377
  Self energy of the core charge distribution:              -2838.21791979121008
  Core Hamiltonian energy:                                    825.34019660582771
  Hartree energy:                                            1181.09356580063422
  Exchange-correlation energy:                               -270.58396487868754
  Dispersion energy:                                           -0.24551368456827

  Total energy:                                             -1102.61363490556028

  outer SCF iter =    1 RMS gradient =   0.74E-06 energy =      -1102.6136349056
  outer SCF loop converged in   1 iterations or    7 steps


 ENERGY| Total FORCE_EVAL ( QS ) energy (a.u.):            -1102.613634926426357


 *******************************************************************************
 ENSEMBLE TYPE                =                                              NVT
 STEP NUMBER                  =                                                9
 TIME [fs]                    =                                         4.500000
 CONSERVED QUANTITY [hartree] =                              -0.110235568947E+04

                                              INSTANTANEOUS             AVERAGES
 CPU TIME [s]                 =                        4.36                 8.32
 ENERGY DRIFT PER ATOM [K]    =          0.240580238605E+00  -0.556641704718E+00
 POTENTIAL ENERGY[hartree]    =         -0.110261363493E+04  -0.110263880465E+04
 KINETIC ENERGY [hartree]     =          0.268857947778E+00   0.279764447431E+00
 TEMPERATURE [K]              =                     294.787              306.745
 *******************************************************************************


 Number of electrons:                                                        512
 Number of occupied orbitals:                                                256
 Number of molecular orbitals:                                               256

 Number of orbital functions:                                               1472
 Number of independent orbital functions:                                   1472

 Extrapolation method: ASPC


 SCF WAVEFUNCTION OPTIMIZATION

  ----------------------------------- OT ---------------------------------------

  Allowing for rotations:  F
  Optimizing orbital energies:  F
  Minimizer      : DIIS                : direct inversion
                                         in the iterative subspace
                            using      : -   7 DIIS vectors
                                         - safer DIIS on
  Preconditioner : FULL_SINGLE_INVERSE : inversion of H + eS - 2*(Sc)(c^T*H*c+const)(Sc)^T
  Precond_solver : DEFAULT
  stepsize       :    0.08000000
  energy_gap     :    0.08000000

  eps_taylor     :   0.10000E-15
  max_taylor     :             4

  mixed_precision    : F

  ----------------------------------- OT ---------------------------------------

  Step     Update method      Time    Convergence         Total energy    Change
  ------------------------------------------------------------------------------
     1 OT DIIS     0.80E-01    0.5     0.00021194     -1102.6103823919 -1.10E+03
     2 OT DIIS     0.80E-01    0.5     0.00012483     -1102.6114291392 -1.05E-03
     3 OT DIIS     0.80E-01    0.5     0.00004897     -1102.6119815425 -5.52E-04
     4 OT DIIS     0.80E-01    0.5     0.00001829     -1102.6120684464 -8.69E-05
     5 OT DIIS     0.80E-01    0.5     0.00000506     -1102.6120815824 -1.31E-05
     6 OT DIIS     0.80E-01    0.5     0.00000209     -1102.6120824517 -8.69E-07
     7 OT DIIS     0.80E-01    0.5     0.00000081     -1102.6120826040 -1.52E-07

  *** SCF run converged in     7 steps ***


  Electronic density on regular grids:       -511.9999999887        0.0000000113
  Core density on regular grids:              511.9999999835       -0.0000000165
  Total charge density on r-space grids:       -0.0000000052
  Total charge density g-space grids:          -0.0000000052

  Overlap energy of the core charge distribution:               0.00000102618399
  Self energy of the core charge distribution:              -2838.21791979121008
  Core Hamiltonian energy:                                    825.28089389065133
  Hartree energy:                                            1181.13858785133289
  Exchange-correlation energy:                               -270.56809734978117
  Dispersion energy:                                           -0.24554823116172

  Total energy:                                             -1102.61208260398485

  outer SCF iter =    1 RMS gradient =   0.81E-06 energy =      -1102.6120826040
  outer SCF loop converged in   1 iterations or    7 steps

  
  Eigenvalues of the occupied subspace spin            1
 ---------------------------------------------
      -0.81981041     -0.81465506     -0.80674250     -0.80446189
      -0.80207351     -0.79840247     -0.79649248     -0.79588138
      -0.79433906     -0.79257723     -0.79170582     -0.79071231
      -0.78971864     -0.78888634     -0.78816903     -0.78764800
      -0.78601777     -0.78525247     -0.78406059     -0.78227548
      -0.78179238     -0.78116113     -0.78043886     -0.77946957
      -0.77924773     -0.77873447     -0.77753857     -0.77607898
      -0.77455524     -0.77440453     -0.77433920     -0.77285404
      -0.77167180     -0.77114795     -0.77043591     -0.76960455
      -0.76913236     -0.76894320     -0.76724722     -0.76705077
      -0.76501220     -0.76463246     -0.76395378     -0.76335799
      -0.76247704     -0.76159912     -0.76060860     -0.76040065
      -0.75946285     -0.75848877     -0.75817329     -0.75714239
      -0.75615777     -0.75514915     -0.75472627     -0.75318107
      -0.74868412     -0.74805163     -0.74691547     -0.74556520
      -0.74399931     -0.74288082     -0.73738218     -0.72889259
      -0.37452740     -0.36547239     -0.35937952     -0.35920158
      -0.35781383     -0.35442113     -0.35254211     -0.35216327
      -0.35069489     -0.35020473     -0.34844301     -0.34798883
      -0.34580221     -0.34406974     -0.34378099     -0.34258364
      -0.34068219     -0.34017763     -0.33957544     -0.33871808
      -0.33833045     -0.33772727     -0.33637551     -0.33565769
      -0.33477578     -0.33458717     -0.33405235     -0.33312118
      -0.33252458     -0.33183551     -0.33123467     -0.33085496
      -0.33037129     -0.32939529     -0.32863187     -0.32794463
      -0.32753866     -0.32582515     -0.32531526     -0.32437885
      -0.32288373     -0.32193945     -0.32066010     -0.31936947
      -0.31829436     -0.31780274     -0.31757765     -0.31720890
      -0.31593916     -0.31574534     -0.31520344     -0.31505696
      -0.31427491     -0.31318850     -0.31178593     -0.31102949
      -0.31071475     -0.30994207     -0.30559375     -0.30497233
      -0.30290081     -0.30118102     -0.30040944     -0.30018095
      -0.26810506     -0.26518314     -0.26100535     -0.25822528
      -0.25445318     -0.25022319     -0.24906369     -0.24891591
      -0.24650207     -0.24400882     -0.24170695     -0.24067164
      -0.23775318     -0.23721597     -0.23403423     -0.23275152
      -0.23160071     -0.23025588     -0.22862782     -0.22814562
      -0.22567605     -0.22322472     -0.22090418     -0.22053922
      -0.21945904     -0.21786499     -0.21559175     -0.21354962
      -0.21148523     -0.21082773     -0.20935572     -0.20870638
      -0.20683151     -0.20588501     -0.20402642     -0.20322264
      -0.20287204     -0.20066625     -0.19932192     -0.19745510
      -0.19628830     -0.19436393     -0.19363972     -0.19252351
      -0.19083388     -0.18990444     -0.18868414     -0.18809063
      -0.18740679     -0.18669636     -0.18446243     -0.18355279
      -0.18146348     -0.17997169     -0.17850080     -0.17625395
      -0.17478743     -0.17340578     -0.17062493     -0.16991148
      -0.16905942     -0.16603394     -0.16322870     -0.15957762
      -0.15358916     -0.15067187     -0.14757118     -0.14631691
      -0.14442448     -0.14433190     -0.14250079     -0.14169546
      -0.14091901     -0.14062347     -0.13929307     -0.13861418
      -0.13818378     -0.13770782     -0.13658316     -0.13648388
      -0.13595650     -0.13526091     -0.13485556     -0.13437031
      -0.13421153     -0.13368860     -0.13335669     -0.13182044
      -0.13169540     -0.13085268     -0.13060917     -0.12976401
      -0.12917480     -0.12874856     -0.12864568     -0.12740287
      -0.12721676     -0.12674530     -0.12631050     -0.12593325
      -0.12562122     -0.12509179     -0.12378892     -0.12324310
      -0.12224741     -0.12088953     -0.11992835     -0.11961328
      -0.11894941     -0.11836063     -0.11818207     -0.11762218
      -0.11727217     -0.11694585     -0.11615173     -0.11507433
      -0.11445777     -0.11340697     -0.11251745     -0.11234411
      -0.11117165     -0.11009041     -0.10840369     -0.10415203
      -0.10320399     -0.10246858     -0.09604900     -0.09483919
 Fermi Energy [eV] :   -2.580706
  
  Lowest Eigenvalues of the unoccupied subspace spin            1
 -----------------------------------------------------
  Reached convergence in           89  iterations 
       0.07040697      0.11488087      0.11862236      0.12120713
  
 HOMO - LUMO gap [eV] :    4.496577

 ENERGY| Total FORCE_EVAL ( QS ) energy (a.u.):            -1102.612082628731741


 *******************************************************************************
 ENSEMBLE TYPE                =                                              NVT
 STEP NUMBER                  =                                               10
 TIME [fs]                    =                                         5.000000
 CONSERVED QUANTITY [hartree] =                              -0.110235566672E+04

                                              INSTANTANEOUS             AVERAGES
 CPU TIME [s]                 =                       14.51                 8.94
 ENERGY DRIFT PER ATOM [K]    =          0.277985496877E+00  -0.473178984558E+00
 POTENTIAL ENERGY[hartree]    =         -0.110261208263E+04  -0.110263613245E+04
 KINETIC ENERGY [hartree]     =          0.262607548455E+00   0.278048757534E+00
 TEMPERATURE [K]              =                     287.933              304.864
 *******************************************************************************


 Number of electrons:                                                        512
 Number of occupied orbitals:                                                256
 Number of molecular orbitals:                                               256

 Number of orbital functions:                                               1472
 Number of independent orbital functions:                                   1472

 Extrapolation method: ASPC


 SCF WAVEFUNCTION OPTIMIZATION

  ----------------------------------- OT ---------------------------------------

  Allowing for rotations:  F
  Optimizing orbital energies:  F
  Minimizer      : DIIS                : direct inversion
                                         in the iterative subspace
                            using      : -   7 DIIS vectors
                                         - safer DIIS on
  Preconditioner : FULL_SINGLE_INVERSE : inversion of H + eS - 2*(Sc)(c^T*H*c+const)(Sc)^T
  Precond_solver : DEFAULT
  stepsize       :    0.08000000
  energy_gap     :    0.08000000

  eps_taylor     :   0.10000E-15
  max_taylor     :             4

  mixed_precision    : F

  ----------------------------------- OT ---------------------------------------

  Step     Update method      Time    Convergence         Total energy    Change
  ------------------------------------------------------------------------------
     1 OT DIIS     0.80E-01    0.5     0.00022093     -1102.6149814272 -1.10E+03
     2 OT DIIS     0.80E-01    0.5     0.00012735     -1102.6161086212 -1.13E-03
     3 OT DIIS     0.80E-01    0.5     0.00004963     -1102.6166715149 -5.63E-04
     4 OT DIIS     0.80E-01    0.5     0.00001924     -1102.6167599045 -8.84E-05
     5 OT DIIS     0.80E-01    0.5     0.00000530     -1102.6167746358 -1.47E-05
     6 OT DIIS     0.80E-01    0.5     0.00000216     -1102.6167756040 -9.68E-07
     7 OT DIIS     0.80E-01    0.5     0.00000083     -1102.6167757655 -1.62E-07

  *** SCF run converged in     7 steps ***


  Electronic density on regular grids:       -511.9999999887        0.0000000113
  Core density on regular grids:              511.9999999835       -0.0000000165
  Total charge density on r-space grids:       -0.0000000051
  Total charge density g-space grids:          -0.0000000051

  Overlap energy of the core charge distribution:               0.00000103738906
  Self energy of the core charge distribution:              -2838.21791979121008
  Core Hamiltonian energy:                                    825.49455084619774
  Hartree energy:                                            1180.98700401044675
  Exchange-correlation energy:                               -270.63481026796126
  Dispersion energy:                                           -0.24560160034801

  Total energy:                                             -1102.61677576548550

  outer SCF iter =    1 RMS gradient =   0.83E-06 energy =      -1102.6167757655
  outer SCF loop converged in   1 iterations or    7 steps


 ENERGY| Total FORCE_EVAL ( QS ) energy (a.u.):            -1102.616775791275813


 *******************************************************************************
 ENSEMBLE TYPE                =                                              NVT
 STEP NUMBER                  =                                               11
 TIME [fs]                    =                                         5.500000
 CONSERVED QUANTITY [hartree] =                              -0.110235578325E+04

                                              INSTANTANEOUS             AVERAGES
 CPU TIME [s]                 =                        4.22                 8.51
 ENERGY DRIFT PER ATOM [K]    =          0.863421020569E-01  -0.422313431230E+00
 POTENTIAL ENERGY[hartree]    =         -0.110261677579E+04  -0.110263437275E+04
 KINETIC ENERGY [hartree]     =          0.288697191724E+00   0.279016797006E+00
 TEMPERATURE [K]              =                     316.539              305.925
 *******************************************************************************


 Number of electrons:                                                        512
 Number of occupied orbitals:                                                256
 Number of molecular orbitals:                                               256

 Number of orbital functions:                                               1472
 Number of independent orbital functions:                                   1472

 Extrapolation method: ASPC


 SCF WAVEFUNCTION OPTIMIZATION

  ----------------------------------- OT ---------------------------------------

  Allowing for rotations:  F
  Optimizing orbital energies:  F
  Minimizer      : DIIS                : direct inversion
                                         in the iterative subspace
                            using      : -   7 DIIS vectors
                                         - safer DIIS on
  Preconditioner : FULL_SINGLE_INVERSE : inversion of H + eS - 2*(Sc)(c^T*H*c+const)(Sc)^T
  Precond_solver : DEFAULT
  stepsize       :    0.08000000
  energy_gap     :    0.08000000

  eps_taylor     :   0.10000E-15
  max_taylor     :             4

  mixed_precision    : F

  ----------------------------------- OT ---------------------------------------

  Step     Update method      Time    Convergence         Total energy    Change
  ------------------------------------------------------------------------------
     1 OT DIIS     0.80E-01    0.5     0.00022691     -1102.6209408147 -1.10E+03
     2 OT DIIS     0.80E-01    0.5     0.00012998     -1102.6221244168 -1.18E-03
     3 OT DIIS     0.80E-01    0.5     0.00005177     -1102.6227012314 -5.77E-04
     4 OT DIIS     0.80E-01    0.5     0.00001972     -1102.6227966309 -9.54E-05
     5 OT DIIS     0.80E-01    0.5     0.00000556     -1102.6228120007 -1.54E-05
     6 OT DIIS     0.80E-01    0.5     0.00000227     -1102.6228130542 -1.05E-06
     7 OT DIIS     0.80E-01    0.5     0.00000084     -1102.6228132333 -1.79E-07

  *** SCF run converged in     7 steps ***


  Electronic density on regular grids:       -511.9999999888        0.0000000112
  Core density on regular grids:              511.9999999836       -0.0000000164
  Total charge density on r-space grids:       -0.0000000053
  Total charge density g-space grids:          -0.0000000053

  Overlap energy of the core charge distribution:               0.00000104995800
  Self energy of the core charge distribution:              -2838.21791979121008
  Core Hamiltonian energy:                                    825.71899218789042
  Hartree energy:                                            1180.82655295100994
  Exchange-correlation energy:                               -270.70480667132233
  Dispersion energy:                                           -0.24563295960801

  Total energy:                                             -1102.62281323328216

  outer SCF iter =    1 RMS gradient =   0.84E-06 energy =      -1102.6228132333
  outer SCF loop converged in   1 iterations or    7 steps


 ENERGY| Total FORCE_EVAL ( QS ) energy (a.u.):            -1102.622813259603390


 *******************************************************************************
 ENSEMBLE TYPE                =                                              NVT
 STEP NUMBER                  =                                               12
 TIME [fs]                    =                                         6.000000
 CONSERVED QUANTITY [hartree] =                              -0.110235593795E+04

                                              INSTANTANEOUS             AVERAGES
 CPU TIME [s]                 =                        4.24                 8.15
 ENERGY DRIFT PER ATOM [K]    =         -0.168086930972E+00  -0.401127889541E+00
 POTENTIAL ENERGY[hartree]    =         -0.110262281326E+04  -0.110263340946E+04
 KINETIC ENERGY [hartree]     =          0.295096611032E+00   0.280356781508E+00
 TEMPERATURE [K]              =                     323.556              307.394
 *******************************************************************************


 Number of electrons:                                                        512
 Number of occupied orbitals:                                                256
 Number of molecular orbitals:                                               256

 Number of orbital functions:                                               1472
 Number of independent orbital functions:                                   1472

 Extrapolation method: ASPC


 SCF WAVEFUNCTION OPTIMIZATION

  ----------------------------------- OT ---------------------------------------

  Allowing for rotations:  F
  Optimizing orbital energies:  F
  Minimizer      : DIIS                : direct inversion
                                         in the iterative subspace
                            using      : -   7 DIIS vectors
                                         - safer DIIS on
  Preconditioner : FULL_SINGLE_INVERSE : inversion of H + eS - 2*(Sc)(c^T*H*c+const)(Sc)^T
  Precond_solver : DEFAULT
  stepsize       :    0.08000000
  energy_gap     :    0.08000000

  eps_taylor     :   0.10000E-15
  max_taylor     :             4

  mixed_precision    : F

  ----------------------------------- OT ---------------------------------------

  Step     Update method      Time    Convergence         Total energy    Change
  ------------------------------------------------------------------------------
     1 OT DIIS     0.80E-01    0.5     0.00023372     -1102.6272727072 -1.10E+03
     2 OT DIIS     0.80E-01    0.5     0.00013330     -1102.6285248195 -1.25E-03
     3 OT DIIS     0.80E-01    0.5     0.00005373     -1102.6291285340 -6.04E-04
     4 OT DIIS     0.80E-01    0.5     0.00002032     -1102.6292329856 -1.04E-04
     5 OT DIIS     0.80E-01    0.5     0.00000555     -1102.6292493946 -1.64E-05
     6 OT DIIS     0.80E-01    0.5     0.00000230     -1102.6292504426 -1.05E-06
     7 OT DIIS     0.80E-01    0.5     0.00000087     -1102.6292506266 -1.84E-07

  *** SCF run converged in     7 steps ***


  Electronic density on regular grids:       -511.9999999889        0.0000000111
  Core density on regular grids:              511.9999999836       -0.0000000164
  Total charge density on r-space grids:       -0.0000000053
  Total charge density g-space grids:          -0.0000000053

  Overlap energy of the core charge distribution:               0.00000109887464
  Self energy of the core charge distribution:              -2838.21791979121008
  Core Hamiltonian energy:                                    826.04313863789071
  Hartree energy:                                            1180.59569254720623
  Exchange-correlation energy:                               -270.80450032290639
  Dispersion energy:                                           -0.24566279647878

  Total energy:                                             -1102.62925062662362

  outer SCF iter =    1 RMS gradient =   0.87E-06 energy =      -1102.6292506266
  outer SCF loop converged in   1 iterations or    7 steps


 ENERGY| Total FORCE_EVAL ( QS ) energy (a.u.):            -1102.629250654519410


 *******************************************************************************
 ENSEMBLE TYPE                =                                              NVT
 STEP NUMBER                  =                                               13
 TIME [fs]                    =                                         6.500000
 CONSERVED QUANTITY [hartree] =                              -0.110235608123E+04

                                              INSTANTANEOUS             AVERAGES
 CPU TIME [s]                 =                        4.18                 7.85
 ENERGY DRIFT PER ATOM [K]    =         -0.403738994643E+00  -0.401328743780E+00
 POTENTIAL ENERGY[hartree]    =         -0.110262925065E+04  -0.110263308955E+04
 KINETIC ENERGY [hartree]     =          0.289353988316E+00   0.281048874339E+00
 TEMPERATURE [K]              =                     317.259              308.153
 *******************************************************************************


 Number of electrons:                                                        512
 Number of occupied orbitals:                                                256
 Number of molecular orbitals:                                               256

 Number of orbital functions:                                               1472
 Number of independent orbital functions:                                   1472

 Extrapolation method: ASPC


 SCF WAVEFUNCTION OPTIMIZATION

  ----------------------------------- OT ---------------------------------------

  Allowing for rotations:  F
  Optimizing orbital energies:  F
[...]
 POTENTIAL ENERGY[hartree]    =         -0.110263873343E+04  -0.110264142669E+04
 KINETIC ENERGY [hartree]     =          0.268647469275E+00   0.286752924270E+00
 TEMPERATURE [K]              =                     294.556              314.407
 *******************************************************************************


 Number of electrons:                                                        512
 Number of occupied orbitals:                                                256
 Number of molecular orbitals:                                               256

 Number of orbital functions:                                               1472
 Number of independent orbital functions:                                   1472

 Extrapolation method: ASPC


 SCF WAVEFUNCTION OPTIMIZATION

  ----------------------------------- OT ---------------------------------------

  Allowing for rotations:  F
  Optimizing orbital energies:  F
  Minimizer      : DIIS                : direct inversion
                                         in the iterative subspace
                            using      : -   7 DIIS vectors
                                         - safer DIIS on
  Preconditioner : FULL_SINGLE_INVERSE : inversion of H + eS - 2*(Sc)(c^T*H*c+const)(Sc)^T
  Precond_solver : DEFAULT
  stepsize       :    0.08000000
  energy_gap     :    0.08000000

  eps_taylor     :   0.10000E-15
  max_taylor     :             4

  mixed_precision    : F

  ----------------------------------- OT ---------------------------------------

  Step     Update method      Time    Convergence         Total energy    Change
  ------------------------------------------------------------------------------
     1 OT DIIS     0.80E-01    0.5     0.00022926     -1102.6386509524 -1.10E+03
     2 OT DIIS     0.80E-01    0.5     0.00013094     -1102.6398600349 -1.21E-03
     3 OT DIIS     0.80E-01    0.5     0.00005100     -1102.6404489557 -5.89E-04
     4 OT DIIS     0.80E-01    0.5     0.00002004     -1102.6405412768 -9.23E-05
     5 OT DIIS     0.80E-01    0.5     0.00000538     -1102.6405572926 -1.60E-05
     6 OT DIIS     0.80E-01    0.5     0.00000222     -1102.6405582851 -9.93E-07
     7 OT DIIS     0.80E-01    0.5     0.00000084     -1102.6405584588 -1.74E-07

  *** SCF run converged in     7 steps ***


  Electronic density on regular grids:       -511.9999999881        0.0000000119
  Core density on regular grids:              511.9999999836       -0.0000000164
  Total charge density on r-space grids:       -0.0000000046
  Total charge density g-space grids:          -0.0000000046

  Overlap energy of the core charge distribution:               0.00000126108521
  Self energy of the core charge distribution:              -2838.21791979121008
  Core Hamiltonian energy:                                    826.58552357112592
  Hartree energy:                                            1180.18932799223830
  Exchange-correlation energy:                               -270.95182707794072
  Dispersion energy:                                           -0.24566441412922

  Total energy:                                             -1102.64055845883036

  outer SCF iter =    1 RMS gradient =   0.84E-06 energy =      -1102.6405584588
  outer SCF loop converged in   1 iterations or    7 steps


 ENERGY| Total FORCE_EVAL ( QS ) energy (a.u.):            -1102.640558486209557


 *******************************************************************************
 ENSEMBLE TYPE                =                                              NVT
 STEP NUMBER                  =                                               47
 TIME [fs]                    =                                        23.500000
 CONSERVED QUANTITY [hartree] =                              -0.110235598095E+04

                                              INSTANTANEOUS             AVERAGES
 CPU TIME [s]                 =                        4.17                 6.09
 ENERGY DRIFT PER ATOM [K]    =         -0.238814030837E+00  -0.319453754416E+00
 POTENTIAL ENERGY[hartree]    =         -0.110264055849E+04  -0.110264140822E+04
 KINETIC ENERGY [hartree]     =          0.272321768201E+00   0.286445878397E+00
 TEMPERATURE [K]              =                     298.584              314.071
 *******************************************************************************


 Number of electrons:                                                        512
 Number of occupied orbitals:                                                256
 Number of molecular orbitals:                                               256

 Number of orbital functions:                                               1472
 Number of independent orbital functions:                                   1472

 Extrapolation method: ASPC


 SCF WAVEFUNCTION OPTIMIZATION

  ----------------------------------- OT ---------------------------------------

  Allowing for rotations:  F
  Optimizing orbital energies:  F
  Minimizer      : DIIS                : direct inversion
                                         in the iterative subspace
                            using      : -   7 DIIS vectors
                                         - safer DIIS on
  Preconditioner : FULL_SINGLE_INVERSE : inversion of H + eS - 2*(Sc)(c^T*H*c+const)(Sc)^T
  Precond_solver : DEFAULT
  stepsize       :    0.08000000
  energy_gap     :    0.08000000

  eps_taylor     :   0.10000E-15
  max_taylor     :             4

  mixed_precision    : F

  ----------------------------------- OT ---------------------------------------

  Step     Update method      Time    Convergence         Total energy    Change
  ------------------------------------------------------------------------------
     1 OT DIIS     0.80E-01    0.5     0.00021640     -1102.6421785634 -1.10E+03
     2 OT DIIS     0.80E-01    0.5     0.00012408     -1102.6432555900 -1.08E-03
     3 OT DIIS     0.80E-01    0.5     0.00004966     -1102.6437828311 -5.27E-04
     4 OT DIIS     0.80E-01    0.5     0.00001899     -1102.6438710041 -8.82E-05
     5 OT DIIS     0.80E-01    0.5     0.00000501     -1102.6438853374 -1.43E-05
     6 OT DIIS     0.80E-01    0.5     0.00000209     -1102.6438861898 -8.52E-07
     7 OT DIIS     0.80E-01    0.5     0.00000080     -1102.6438863439 -1.54E-07

  *** SCF run converged in     7 steps ***


  Electronic density on regular grids:       -511.9999999881        0.0000000119
  Core density on regular grids:              511.9999999836       -0.0000000164
  Total charge density on r-space grids:       -0.0000000045
  Total charge density g-space grids:          -0.0000000045

  Overlap energy of the core charge distribution:               0.00000120870240
  Self energy of the core charge distribution:              -2838.21791979121008
  Core Hamiltonian energy:                                    826.49384543900692
  Hartree energy:                                            1180.25231451753552
  Exchange-correlation energy:                               -270.92643321667907
  Dispersion energy:                                           -0.24569450122032

  Total energy:                                             -1102.64388634386432

  outer SCF iter =    1 RMS gradient =   0.80E-06 energy =      -1102.6438863439
  outer SCF loop converged in   1 iterations or    7 steps


 ENERGY| Total FORCE_EVAL ( QS ) energy (a.u.):            -1102.643886368677840


 *******************************************************************************
 ENSEMBLE TYPE                =                                              NVT
 STEP NUMBER                  =                                               48
 TIME [fs]                    =                                        24.000000
 CONSERVED QUANTITY [hartree] =                              -0.110235603932E+04

                                              INSTANTANEOUS             AVERAGES
 CPU TIME [s]                 =                        4.22                 6.05
 ENERGY DRIFT PER ATOM [K]    =         -0.334801688092E+00  -0.319773503034E+00
 POTENTIAL ENERGY[hartree]    =         -0.110264388637E+04  -0.110264145985E+04
 KINETIC ENERGY [hartree]     =          0.280027628512E+00   0.286312164857E+00
 TEMPERATURE [K]              =                     307.033              313.924
 *******************************************************************************


 Number of electrons:                                                        512
 Number of occupied orbitals:                                                256
 Number of molecular orbitals:                                               256

 Number of orbital functions:                                               1472
 Number of independent orbital functions:                                   1472

 Extrapolation method: ASPC


 SCF WAVEFUNCTION OPTIMIZATION

  ----------------------------------- OT ---------------------------------------

  Allowing for rotations:  F
  Optimizing orbital energies:  F
  Minimizer      : DIIS                : direct inversion
                                         in the iterative subspace
                            using      : -   7 DIIS vectors
                                         - safer DIIS on
  Preconditioner : FULL_SINGLE_INVERSE : inversion of H + eS - 2*(Sc)(c^T*H*c+const)(Sc)^T
  Precond_solver : DEFAULT
  stepsize       :    0.08000000
  energy_gap     :    0.08000000

  eps_taylor     :   0.10000E-15
  max_taylor     :             4

  mixed_precision    : F

  ----------------------------------- OT ---------------------------------------

  Step     Update method      Time    Convergence         Total energy    Change
  ------------------------------------------------------------------------------
     1 OT DIIS     0.80E-01    0.5     0.00020517     -1102.6463288778 -1.10E+03
     2 OT DIIS     0.80E-01    0.5     0.00011780     -1102.6472949685 -9.66E-04
     3 OT DIIS     0.80E-01    0.5     0.00004888     -1102.6477658556 -4.71E-04
     4 OT DIIS     0.80E-01    0.5     0.00001830     -1102.6478518127 -8.60E-05
     5 OT DIIS     0.80E-01    0.5     0.00000499     -1102.6478650663 -1.33E-05
     6 OT DIIS     0.80E-01    0.5     0.00000207     -1102.6478659108 -8.44E-07
     7 OT DIIS     0.80E-01    0.5     0.00000080     -1102.6478660601 -1.49E-07

  *** SCF run converged in     7 steps ***


  Electronic density on regular grids:       -511.9999999882        0.0000000118
  Core density on regular grids:              511.9999999836       -0.0000000164
  Total charge density on r-space grids:       -0.0000000046
  Total charge density g-space grids:          -0.0000000046

  Overlap energy of the core charge distribution:               0.00000116843489
  Self energy of the core charge distribution:              -2838.21791979121008
  Core Hamiltonian energy:                                    826.45840300248278
  Hartree energy:                                            1180.27586059006990
  Exchange-correlation energy:                               -270.91849333847978
  Dispersion energy:                                           -0.24571769135762

  Total energy:                                             -1102.64786606006010

  outer SCF iter =    1 RMS gradient =   0.80E-06 energy =      -1102.6478660601
  outer SCF loop converged in   1 iterations or    7 steps


 ENERGY| Total FORCE_EVAL ( QS ) energy (a.u.):            -1102.647866084611678


 *******************************************************************************
 ENSEMBLE TYPE                =                                              NVT
 STEP NUMBER                  =                                               49
 TIME [fs]                    =                                        24.500000
 CONSERVED QUANTITY [hartree] =                              -0.110235612749E+04

                                              INSTANTANEOUS             AVERAGES
 CPU TIME [s]                 =                        4.34                 6.02
 ENERGY DRIFT PER ATOM [K]    =         -0.479818492153E+00  -0.323039727302E+00
 POTENTIAL ENERGY[hartree]    =         -0.110264786608E+04  -0.110264159059E+04
 KINETIC ENERGY [hartree]     =          0.277870189731E+00   0.286139879651E+00
 TEMPERATURE [K]              =                     304.668              313.735
 *******************************************************************************


 Number of electrons:                                                        512
 Number of occupied orbitals:                                                256
 Number of molecular orbitals:                                               256

 Number of orbital functions:                                               1472
 Number of independent orbital functions:                                   1472

 Extrapolation method: ASPC


 SCF WAVEFUNCTION OPTIMIZATION

  ----------------------------------- OT ---------------------------------------

  Allowing for rotations:  F
  Optimizing orbital energies:  F
  Minimizer      : DIIS                : direct inversion
                                         in the iterative subspace
                            using      : -   7 DIIS vectors
                                         - safer DIIS on
  Preconditioner : FULL_SINGLE_INVERSE : inversion of H + eS - 2*(Sc)(c^T*H*c+const)(Sc)^T
  Precond_solver : DEFAULT
  stepsize       :    0.08000000
  energy_gap     :    0.08000000

  eps_taylor     :   0.10000E-15
  max_taylor     :             4

  mixed_precision    : F

  ----------------------------------- OT ---------------------------------------

  Step     Update method      Time    Convergence         Total energy    Change
  ------------------------------------------------------------------------------
     1 OT DIIS     0.80E-01    0.5     0.00021829     -1102.6491911489 -1.10E+03
     2 OT DIIS     0.80E-01    0.5     0.00012537     -1102.6502918397 -1.10E-03
     3 OT DIIS     0.80E-01    0.5     0.00004812     -1102.6508388135 -5.47E-04
     4 OT DIIS     0.80E-01    0.5     0.00001944     -1102.6509198919 -8.11E-05
     5 OT DIIS     0.80E-01    0.5     0.00000535     -1102.6509348971 -1.50E-05
     6 OT DIIS     0.80E-01    0.5     0.00000218     -1102.6509358839 -9.87E-07
     7 OT DIIS     0.80E-01    0.5     0.00000082     -1102.6509360515 -1.68E-07

  *** SCF run converged in     7 steps ***


  Electronic density on regular grids:       -511.9999999882        0.0000000118
  Core density on regular grids:              511.9999999836       -0.0000000164
  Total charge density on r-space grids:       -0.0000000046
  Total charge density g-space grids:          -0.0000000046

  Overlap energy of the core charge distribution:               0.00000116949824
  Self energy of the core charge distribution:              -2838.21791979121008
  Core Hamiltonian energy:                                    826.60641806886679
  Hartree energy:                                            1180.17034753960820
  Exchange-correlation energy:                               -270.96402324996239
  Dispersion energy:                                           -0.24575978825945

  Total energy:                                             -1102.65093605145853

  outer SCF iter =    1 RMS gradient =   0.82E-06 energy =      -1102.6509360515
  outer SCF loop converged in   1 iterations or    7 steps

  
  Eigenvalues of the occupied subspace spin            1
 ---------------------------------------------
      -0.81685263     -0.81357603     -0.81182302     -0.80889580
      -0.80614827     -0.80593041     -0.80447599     -0.80037510
      -0.79885351     -0.79686403     -0.79564147     -0.79401007
      -0.79345687     -0.79152965     -0.79061437     -0.78962966
      -0.78833124     -0.78773888     -0.78715833     -0.78617049
      -0.78594657     -0.78562720     -0.78464384     -0.78354119
      -0.78349009     -0.78159537     -0.78126033     -0.77948144
      -0.77924256     -0.77773633     -0.77727244     -0.77644627
      -0.77629494     -0.77422891     -0.77347693     -0.77221698
      -0.77044701     -0.76982905     -0.76948337     -0.76807060
      -0.76786170     -0.76696461     -0.76597046     -0.76467126
      -0.76401082     -0.76336259     -0.76281993     -0.76192652
      -0.76066673     -0.75991633     -0.75936556     -0.75737163
      -0.75666454     -0.75561197     -0.75194490     -0.74967262
      -0.74926771     -0.74804310     -0.74597599     -0.74574016
      -0.74243818     -0.74159761     -0.73919006     -0.73674112
      -0.36772019     -0.36646760     -0.36433031     -0.36265177
      -0.36130348     -0.35998107     -0.35913333     -0.35798778
      -0.35726762     -0.35618545     -0.35461635     -0.35394576
      -0.34868823     -0.34709860     -0.34644690     -0.34472761
      -0.34392574     -0.34276041     -0.34255976     -0.34139323
      -0.34131558     -0.34104123     -0.34080160     -0.34016480
      -0.33959041     -0.33864135     -0.33791270     -0.33757789
      -0.33688373     -0.33679942     -0.33542251     -0.33486168
      -0.33389051     -0.33318976     -0.33211313     -0.33114124
      -0.33053568     -0.32975346     -0.32960086     -0.32878513
      -0.32813354     -0.32739551     -0.32728755     -0.32675304
      -0.32651830     -0.32431270     -0.32360732     -0.32314624
      -0.32142331     -0.32050033     -0.31901059     -0.31881128
      -0.31823442     -0.31645353     -0.31527545     -0.31208069
      -0.30964535     -0.30668790     -0.30474767     -0.30453628
      -0.30408931     -0.30186198     -0.29691596     -0.29153357
      -0.26874958     -0.26249588     -0.26137154     -0.25965542
      -0.25556688     -0.25157746     -0.24880037     -0.24697708
      -0.24468283     -0.24178669     -0.24131890     -0.24004014
      -0.23936954     -0.23647395     -0.23433516     -0.23340373
      -0.23045529     -0.22893444     -0.22624827     -0.22576678
      -0.22503269     -0.22320216     -0.22172884     -0.22085547
      -0.21883558     -0.21745534     -0.21495088     -0.21287125
      -0.21150663     -0.21080504     -0.20938432     -0.20849938
      -0.20671652     -0.20591256     -0.20535498     -0.20477040
      -0.20289829     -0.20103344     -0.20078111     -0.19948508
      -0.19838364     -0.19625443     -0.19579100     -0.19518033
      -0.19213792     -0.18876387     -0.18800294     -0.18653378
      -0.18499507     -0.18403740     -0.18197189     -0.17995345
      -0.17782957     -0.17750772     -0.17663787     -0.17522546
      -0.17232554     -0.17137680     -0.16786245     -0.16573364
      -0.16520296     -0.15999479     -0.15837788     -0.15665425
      -0.15428540     -0.15267354     -0.15105975     -0.14874446
      -0.14805761     -0.14689636     -0.14556748     -0.14507753
      -0.14486884     -0.14406263     -0.14257635     -0.14197935
      -0.14183772     -0.14032436     -0.14028178     -0.13844151
      -0.13779794     -0.13690125     -0.13635383     -0.13569383
      -0.13563911     -0.13495147     -0.13421836     -0.13390941
      -0.13353049     -0.13243587     -0.13225649     -0.13141475
      -0.13057206     -0.13028067     -0.12983354     -0.12938488
      -0.12714069     -0.12695698     -0.12614441     -0.12572127
      -0.12400095     -0.12320981     -0.12171545     -0.12131665
      -0.12044710     -0.11979581     -0.11954996     -0.11885381
      -0.11822555     -0.11790812     -0.11728678     -0.11684083
      -0.11619198     -0.11519072     -0.11480186     -0.11367019
      -0.11348259     -0.11222734     -0.11209347     -0.10909726
      -0.10804811     -0.10592339     -0.10580632     -0.10272206
      -0.10167831     -0.10015133     -0.09919522     -0.09256691
 Fermi Energy [eV] :   -2.518874
  
  Lowest Eigenvalues of the unoccupied subspace spin            1
 -----------------------------------------------------
