 DBCSR| Multiplication driver                                                SMM
 DBCSR| Multrec recursion limit                                              512
 DBCSR| Multiplication stack size                                           1000
 DBCSR| Multiplication size stacks                                             3
 DBCSR| Use subcommunicators                                                   T
 DBCSR| Use MPI combined types                                                 F
 DBCSR| Use MPI memory allocation                                              T
 DBCSR| Use Communication thread                                               T
 DBCSR| Communication thread load                                             87


  **** **** ******  **  PROGRAM STARTED AT               2015-03-10 12:09:14.556
 ***** ** ***  *** **   PROGRAM STARTED ON                                  n247
 **    ****   ******    PROGRAM STARTED BY                                 bja39
 ***** **    ** ** **   PROGRAM PROCESS ID                                 16262
  **** **  *******  **  PROGRAM STARTED IN /home/dlambrecht/bja39/cp2k/hfx/hfx90

 CP2K| version string:                                          CP2K version 2.6
 CP2K| source code revision number:                                  git:9520686
 CP2K| is freely available from                             http://www.cp2k.org/
 CP2K| Program compiled at                          Fri Feb 27 09:44:54 EST 2015
 CP2K| Program compiled on                            login0a.frank.sam.pitt.edu
 CP2K| Program compiled for                                                Frank
 CP2K| Input file name                                                   hfx.inp
 
 GLOBAL| Force Environment number                                              1
 GLOBAL| Basis set file name                                           HFX_BASIS
 GLOBAL| Geminal file name                                         BASIS_GEMINAL
 GLOBAL| Potential file name                                      GTH_POTENTIALS
 GLOBAL| MM Potential file name                                     MM_POTENTIAL
 GLOBAL| Coordinate file name                                          water.xyz
 GLOBAL| Method name                                                        CP2K
 GLOBAL| Project name                                                      WATER
 GLOBAL| Preferred FFT library                                             FFTW3
 GLOBAL| Preferred diagonalization lib.                                       SL
 GLOBAL| Run type                                                         ENERGY
 GLOBAL| All-to-all communication in single precision                          F
 GLOBAL| FFTs using library dependent lengths                                  F
 GLOBAL| Global print level                                               MEDIUM
 GLOBAL| Total number of message passing processes                            64
 GLOBAL| Number of threads for this process                                    1
 GLOBAL| This output is from process                                           0

 MEMORY| system memory details [Kb]
 MEMORY|                        rank 0           min           max       average
 MEMORY| MemTotal             32989296      32989296      32989296      32989296
 MEMORY| MemFree               4346408       4324956       8941876       6246564
 MEMORY| Buffers                  1300          1256        507136        127744
 MEMORY| Cached               26315056      21076448      26315056      23340037
 MEMORY| Slab                   981256        981256       3912304       1926947
 MEMORY| SReclaimable           410160        410160       3096108       1319364
 MEMORY| MemLikelyFree        31072924      30813400      31214408      31033709


 *** Fundamental physical constants (SI units) ***

 *** Literature: B. J. Mohr and B. N. Taylor,
 ***             CODATA recommended values of the fundamental physical
 ***             constants: 2006, Web Version 5.1
 ***             http://physics.nist.gov/constants

 Speed of light in vacuum [m/s]                             2.99792458000000E+08
 Magnetic constant or permeability of vacuum [N/A**2]       1.25663706143592E-06
 Electric constant or permittivity of vacuum [F/m]          8.85418781762039E-12
 Planck constant (h) [J*s]                                  6.62606896000000E-34
 Planck constant (h-bar) [J*s]                              1.05457162825177E-34
 Elementary charge [C]                                      1.60217648700000E-19
 Electron mass [kg]                                         9.10938215000000E-31
 Electron g factor [ ]                                     -2.00231930436220E+00
 Proton mass [kg]                                           1.67262163700000E-27
 Fine-structure constant                                    7.29735253760000E-03
 Rydberg constant [1/m]                                     1.09737315685270E+07
 Avogadro constant [1/mol]                                  6.02214179000000E+23
 Boltzmann constant [J/K]                                   1.38065040000000E-23
 Atomic mass unit [kg]                                      1.66053878200000E-27
 Bohr radius [m]                                            5.29177208590000E-11

 *** Conversion factors ***

 [u] -> [a.u.]                                              1.82288848426455E+03
 [Angstrom] -> [Bohr] = [a.u.]                              1.88972613288564E+00
 [a.u.] = [Bohr] -> [Angstrom]                              5.29177208590000E-01
 [a.u.] -> [s]                                              2.41888432650478E-17
 [a.u.] -> [fs]                                             2.41888432650478E-02
 [a.u.] -> [J]                                              4.35974393937059E-18
 [a.u.] -> [N]                                              8.23872205491840E-08
 [a.u.] -> [K]                                              3.15774647902944E+05
 [a.u.] -> [kJ/mol]                                         2.62549961709828E+03
 [a.u.] -> [kcal/mol]                                       6.27509468713739E+02
 [a.u.] -> [Pa]                                             2.94210107994716E+13
 [a.u.] -> [bar]                                            2.94210107994716E+08
 [a.u.] -> [atm]                                            2.90362800883016E+08
 [a.u.] -> [eV]                                             2.72113838565563E+01
 [a.u.] -> [Hz]                                             6.57968392072181E+15
 [a.u.] -> [1/cm] (wave numbers)                            2.19474631370540E+05
 [a.u./Bohr**2] -> [1/cm]                                   5.14048714338585E+03
 

 CELL_TOP| Volume [angstrom^3]:                                         1915.864
 CELL_TOP| Vector a [angstrom    12.420     0.000     0.000    |a| =      12.420
 CELL_TOP| Vector b [angstrom     0.000    12.420     0.000    |b| =      12.420
 CELL_TOP| Vector c [angstrom     0.000     0.000    12.420    |c| =      12.420
 CELL_TOP| Angle (b,c), alpha [degree]:                                   90.000
 CELL_TOP| Angle (a,c), beta  [degree]:                                   90.000
 CELL_TOP| Angle (a,b), gamma [degree]:                                   90.000
 CELL_TOP| Numerically orthorhombic:                                         YES
 
 GENERATE|  Preliminary Number of Bonds generated:                             0
 GENERATE|  Achieved consistency in connectivity generation.

 CELL| Volume [angstrom^3]:                                             1915.864
 CELL| Vector a [angstrom]:      12.420     0.000     0.000    |a| =      12.420
 CELL| Vector b [angstrom]:       0.000    12.420     0.000    |b| =      12.420
 CELL| Vector c [angstrom]:       0.000     0.000    12.420    |c| =      12.420
 CELL| Angle (b,c), alpha [degree]:                                       90.000
 CELL| Angle (a,c), beta  [degree]:                                       90.000
 CELL| Angle (a,b), gamma [degree]:                                       90.000
 CELL| Numerically orthorhombic:                                             YES

 CELL_REF| Volume [angstrom^3]:                                         1915.864
 CELL_REF| Vector a [angstrom    12.420     0.000     0.000    |a| =      12.420
 CELL_REF| Vector b [angstrom     0.000    12.420     0.000    |b| =      12.420
 CELL_REF| Vector c [angstrom     0.000     0.000    12.420    |c| =      12.420
 CELL_REF| Angle (b,c), alpha [degree]:                                   90.000
 CELL_REF| Angle (a,c), beta  [degree]:                                   90.000
 CELL_REF| Angle (a,b), gamma [degree]:                                   90.000
 CELL_REF| Numerically orthorhombic:                                         YES

 *******************************************************************************
 *******************************************************************************
 **                                                                           **
 **     #####                         ##              ##                      **
 **    ##   ##            ##          ##              ##                      **
 **   ##     ##                       ##            ######                    **
 **   ##     ##  ##   ##  ##   #####  ##  ##   ####   ##    #####    #####    **
 **   ##     ##  ##   ##  ##  ##      ## ##   ##      ##   ##   ##  ##   ##   **
 **   ##  ## ##  ##   ##  ##  ##      ####     ###    ##   ######   ######    **
 **    ##  ###   ##   ##  ##  ##      ## ##      ##   ##   ##       ##        **
 **     #######   #####   ##   #####  ##  ##  ####    ##    #####   ##        **
 **           ##                                                    ##        **
 **                                                                           **
 **                                                ... make the atoms dance   **
 **                                                                           **
 **            Copyright (C) by CP2K Developers Group (2000 - 2014)           **
 **                                                                           **
 *******************************************************************************

 DFT| Spin restricted Kohn-Sham (RKS) calculation                            RKS
 DFT| Multiplicity                                                             1
 DFT| Number of spin states                                                    1
 DFT| Charge                                                                   0
 DFT| Self-interaction correction (SIC)                                       NO
 DFT| Cutoffs: density                                              1.000000E-10
 DFT|          gradient                                             1.000000E-10
 DFT|          tau                                                  1.000000E-10
 DFT|          cutoff_smoothing_range                               0.000000E+00
 DFT| XC density smoothing                                                  NONE
 DFT| XC derivatives                                                          PW
 FUNCTIONAL| ROUTINE=NEW
 FUNCTIONAL| PBE:
 FUNCTIONAL| J.P.Perdew, K.Burke, M.Ernzerhof, Phys. Rev. Letter, vol. 77, n 18,
 FUNCTIONAL|  pp. 3865-3868, (1996)sx=0.100sc=1.000{spin unpolarized}
 vdW POTENTIAL|                                                   Pair Potential
 vdW POTENTIAL|          DFT-D3 (Version 3.1)
 vdW POTENTIAL|          Potential Form: S. Grimme et al, JCP 132: 154104 (2010)
 vdW POTENTIAL|          Zero Damping
 vdW POTENTIAL|          Cutoff Radius [Bohr]:                             30.24
 vdW POTENTIAL|          s6 Scaling Factor:                               1.0000
 vdW POTENTIAL|          sr6 Scaling Factor:                              1.2870
 vdW POTENTIAL|          s8 Scaling Factor:                               0.9280
 vdW POTENTIAL|          Cutoff for CN calculation:                   0.1000E-05

 QS| Method:                                                                 GPW
 QS| Density plane wave grid type                        NON-SPHERICAL FULLSPACE
 QS| Number of grid levels:                                                    4
 QS| Density cutoff [a.u.]:                                                200.0
 QS| Multi grid cutoff [a.u.]: 1) grid level                               200.0
 QS|                           2) grid level                                66.7
 QS|                           3) grid level                                22.2
 QS|                           4) grid level                                 7.4
 QS| Grid level progression factor:                                          3.0
 QS| Relative density cutoff [a.u.]:                                        20.0
 QS| Consistent realspace mapping and integration 
 QS| Interaction thresholds: eps_pgf_orb:                                1.0E-05
 QS|                         eps_filter_matrix:                          0.0E+00
 QS|                         eps_core_charge:                            1.0E-12
 QS|                         eps_rho_gspace:                             1.0E-10
 QS|                         eps_rho_rspace:                             1.0E-10
 QS|                         eps_gvg_rspace:                             1.0E-05
 QS|                         eps_ppl:                                    1.0E-02
 QS|                         eps_ppnl:                                   1.0E-07


 ATOMIC KIND INFORMATION

  1. Atomic kind: O                                     Number of atoms:      64

     Orbital Basis Set                                                  DZVP-GTH

       Number of orbital shell sets:                                           3
       Number of orbital shells:                                               5
       Number of primitive Cartesian functions:                                5
       Number of Cartesian basis functions:                                   14
       Number of spherical basis functions:                                   13
       Norm type:                                                              2

       Normalised Cartesian orbitals:

                        Set   Shell   Orbital            Exponent    Coefficient

                          1       1    2s                8.304386       0.778600
                                                         2.457948      -0.081348
                                                         0.759737      -0.597925

                          1       2    3px               8.304386      -2.634104
                                                         2.457948      -1.739269
                                                         0.759737      -0.632383
                          1       2    3py               8.304386      -2.634104
                                                         2.457948      -1.739269
                                                         0.759737      -0.632383
                          1       2    3pz               8.304386      -2.634104
                                                         2.457948      -1.739269
                                                         0.759737      -0.632383

                          2       1    2s                0.213639       0.223960

                          2       2    3px               0.213639       0.207033
                          2       2    3py               0.213639       0.207033
                          2       2    3pz               0.213639       0.207033

                          3       1    3dx2              1.185000       2.215218
                          3       1    3dxy              1.185000       3.836871
                          3       1    3dxz              1.185000       3.836871
                          3       1    3dy2              1.185000       2.215218
                          3       1    3dyz              1.185000       3.836871
                          3       1    3dz2              1.185000       2.215218

     Potential information for                                        GTH-PBE-q6

       Description:                       Goedecker-Teter-Hutter pseudopotential
                                           Goedecker et al., PRB 54, 1703 (1996)
                                          Hartwigsen et al., PRB 58, 3641 (1998)
                                                      Krack, TCA 114, 145 (2005)

       Gaussian exponent of the core charge distribution:               8.360253
       Electronic configuration (s p d ...):                               2   4

       Parameters of the local part of the GTH pseudopotential:

                          rloc        C1          C2          C3          C4
                        0.244554  -16.667215    2.487311

       Parameters of the non-local part of the GTH pseudopotential:

                   l      r(l)      h(i,j,l)

                   0    0.220956   18.337458
                   1    0.211332

  2. Atomic kind: H                                     Number of atoms:     128

     Orbital Basis Set                                                  DZVP-GTH

       Number of orbital shell sets:                                           3
       Number of orbital shells:                                               3
       Number of primitive Cartesian functions:                                5
       Number of Cartesian basis functions:                                    5
       Number of spherical basis functions:                                    5
       Norm type:                                                              2

       Normalised Cartesian orbitals:

                        Set   Shell   Orbital            Exponent    Coefficient

                          1       1    1s                8.374435      -0.191705
                                                         1.805868      -0.285532
                                                         0.485253      -0.319237

                          2       1    1s                0.165824       0.185202

                          3       1    2px               0.727000       0.956881
                          3       1    2py               0.727000       0.956881
                          3       1    2pz               0.727000       0.956881

     Potential information for                                        GTH-PBE-q1

       Description:                       Goedecker-Teter-Hutter pseudopotential
                                           Goedecker et al., PRB 54, 1703 (1996)
                                          Hartwigsen et al., PRB 58, 3641 (1998)
                                                      Krack, TCA 114, 145 (2005)

       Gaussian exponent of the core charge distribution:              12.500000
       Electronic configuration (s p d ...):                                   1

       Parameters of the local part of the GTH pseudopotential:

                          rloc        C1          C2          C3          C4
                        0.200000   -4.178900    0.724463


 MOLECULE KIND INFORMATION


 All atoms are their own molecule, skipping detailed information


 TOTAL NUMBERS AND MAXIMUM NUMBERS

  Total number of            - Atomic kinds:                                   2
                             - Atoms:                                        192
                             - Shell sets:                                   576
                             - Shells:                                       704
                             - Primitive Cartesian functions:                960
                             - Cartesian basis functions:                   1536
                             - Spherical basis functions:                   1472

  Maximum angular momentum of- Orbital basis functions:                        2
                             - Local part of the GTH pseudopotential:          2
                             - Non-local part of the GTH pseudopotential:      0


 MODULE QUICKSTEP:  ATOMIC COORDINATES IN angstrom

  Atom  Kind  Element       X           Y           Z          Z(eff)       Mass

       1     1 O    8    3.858587   -4.753318    5.509197      6.00      15.9994
       2     2 H    1    4.210995   -5.556871    5.999459      1.00       1.0079
       3     2 H    1    3.094708   -4.317266    5.913595      1.00       1.0079
       4     1 O    8   -3.546076    1.745624    4.288021      6.00      15.9994
       5     2 H    1   -3.357258    0.836994    4.152946      1.00       1.0079
       6     2 H    1   -3.608914    1.943698    5.269839      1.00       1.0079
       7     1 O    8    4.569136    2.934327   -7.099972      6.00      15.9994
       8     2 H    1    3.678596    3.229107   -6.804983      1.00       1.0079
       9     2 H    1    4.495367    2.784591   -8.045803      1.00       1.0079
      10     1 O    8   -2.573180   -0.106310   -3.414714      6.00      15.9994
      11     2 H    1   -2.038669    0.415523   -2.828965      1.00       1.0079
      12     2 H    1   -1.889161   -0.614820   -3.928063      1.00       1.0079
      13     1 O    8   -3.762503   -7.710594    5.627998      6.00      15.9994
      14     2 H    1   -4.634354   -7.419980    5.987479      1.00       1.0079
      15     2 H    1   -3.852063   -7.634849    4.660781      1.00       1.0079
      16     1 O    8   -6.713126   -0.075920    2.317684      6.00      15.9994
      17     2 H    1   -6.041585   -0.456040    3.007998      1.00       1.0079
      18     2 H    1   -6.258264    0.734307    1.958295      1.00       1.0079
      19     1 O    8    4.010954   -5.581769   -0.412691      6.00      15.9994
      20     2 H    1    3.332131   -5.616691    0.307694      1.00       1.0079
      21     2 H    1    3.905154   -4.753344   -0.836952      1.00       1.0079
      22     1 O    8   -2.669263   -3.081051   -1.225935      6.00      15.9994
      23     2 H    1   -3.248632   -2.449171   -1.738693      1.00       1.0079
      24     2 H    1   -2.191896   -2.598852   -0.576307      1.00       1.0079
      25     1 O    8    5.457624   -3.168804    3.100260      6.00      15.9994
      26     2 H    1    4.685499   -3.245800    3.622418      1.00       1.0079
      27     2 H    1    5.257937   -3.050750    2.131140      1.00       1.0079
      28     1 O    8    2.007879    3.802589   -6.644120      6.00      15.9994
      29     2 H    1    1.380904    3.070273   -6.803869      1.00       1.0079
      30     2 H    1    1.836607    4.066629   -5.709998      1.00       1.0079
      31     1 O    8    4.060883   -3.892921   -3.059677      6.00      15.9994
      32     2 H    1    3.233271   -3.720667   -3.695376      1.00       1.0079
      33     2 H    1    4.336690   -2.982510   -2.984822      1.00       1.0079
      34     1 O    8    1.977359   -1.844229    1.022567      6.00      15.9994
      35     2 H    1    1.565064   -2.471360    1.649594      1.00       1.0079
      36     2 H    1    1.619481   -1.913312    0.065695      1.00       1.0079
      37     1 O    8    0.733845   -5.743288   -5.010069      6.00      15.9994
      38     2 H    1    1.479577   -6.329923   -4.818933      1.00       1.0079
      39     2 H    1    0.449115   -5.709569   -5.947356      1.00       1.0079
      40     1 O    8   -7.516646   -8.678106   -3.237157      6.00      15.9994
      41     2 H    1   -7.873766   -9.602722   -3.081415      1.00       1.0079
      42     2 H    1   -7.132394   -8.578896   -2.346766      1.00       1.0079
      43     1 O    8    3.008996   -1.620693    5.170452      6.00      15.9994
      44     2 H    1    3.854786   -1.802286    5.686635      1.00       1.0079
      45     2 H    1    3.170083   -0.818538    4.610243      1.00       1.0079
      46     1 O    8   -0.094349    1.863471   -6.686135      6.00      15.9994
      47     2 H    1    0.238983    1.055233   -6.317038      1.00       1.0079
      48     2 H    1   -0.053460    1.737047   -7.652783      1.00       1.0079
      49     1 O    8    1.380300   -3.081547    3.659847      6.00      15.9994
      50     2 H    1    2.005275   -2.679362    4.316923      1.00       1.0079
      51     2 H    1    1.097394   -3.966638    3.981340      1.00       1.0079
      52     1 O    8   -2.327913    2.806079    2.234742      6.00      15.9994
      53     2 H    1   -1.623045    2.131523    2.186616      1.00       1.0079
      54     2 H    1   -2.760923    2.581957    3.088951      1.00       1.0079
      55     1 O    8    0.874513   -0.661119   -5.600405      6.00      15.9994
      56     2 H    1    1.720402   -0.818966   -6.109861      1.00       1.0079
      57     2 H    1    1.196412   -0.240506   -4.754906      1.00       1.0079
      58     1 O    8   -1.186646   -0.716403    0.243785      6.00      15.9994
      59     2 H    1   -1.134001    0.232571   -0.072616      1.00       1.0079
      60     2 H    1   -0.933544   -0.785478    1.201134      1.00       1.0079
      61     1 O    8   -3.886194   -9.012929   -3.131857      6.00      15.9994
      62     2 H    1   -4.498349   -8.280126   -3.216022      1.00       1.0079
      63     2 H    1   -2.918386   -8.730140   -3.122451      1.00       1.0079
      64     1 O    8    4.978441    4.557411    2.160598      6.00      15.9994
      65     2 H    1    4.574251    4.069025    1.437504      1.00       1.0079
      66     2 H    1    4.210678    4.907944    2.673609      1.00       1.0079
      67     1 O    8    4.207481    1.029475   -3.213494      6.00      15.9994
      68     2 H    1    4.625087    0.852431   -4.064867      1.00       1.0079
      69     2 H    1    4.422152    0.192039   -2.736436      1.00       1.0079
      70     1 O    8   -5.210635   -6.346370   -2.680646      6.00      15.9994
      71     2 H    1   -5.380163   -6.086183   -1.773761      1.00       1.0079
      72     2 H    1   -5.998555   -6.089431   -3.152188      1.00       1.0079
      73     1 O    8    4.827201   -2.149309    0.695756      6.00      15.9994
      74     2 H    1    5.169811   -1.384311    1.168073      1.00       1.0079
      75     2 H    1    3.873140   -2.015277    0.790152      1.00       1.0079
      76     1 O    8    2.108497    0.940656    1.696470      6.00      15.9994
      77     2 H    1    2.763570    1.510652    1.258248      1.00       1.0079
      78     2 H    1    2.313842    0.079150    1.294322      1.00       1.0079
      79     1 O    8   -5.757905   -5.093599   -0.361373      6.00      15.9994
      80     2 H    1   -6.692202   -5.443891   -0.243446      1.00       1.0079
      81     2 H    1   -5.933954   -4.185226   -0.689323      1.00       1.0079
      82     1 O    8   -4.850118    4.634751    2.632366      6.00      15.9994
      83     2 H    1   -5.818692    4.729150    2.364808      1.00       1.0079
      84     2 H    1   -4.768696    3.668506    2.248911      1.00       1.0079
      85     1 O    8    5.512389    0.852383   -5.592791      6.00      15.9994
      86     2 H    1    6.400927    1.196167   -5.345498      1.00       1.0079
      87     2 H    1    5.032627    1.457110   -6.282087      1.00       1.0079
      88     1 O    8    0.736518   -1.917695   -1.272458      6.00      15.9994
      89     2 H    1    0.436663   -2.668596   -1.845250      1.00       1.0079
      90     2 H    1   -0.028072   -1.634696   -0.732364      1.00       1.0079
      91     1 O    8    3.900594    2.622197    0.082498      6.00      15.9994
      92     2 H    1    4.660363    2.413641   -0.488502      1.00       1.0079
      93     2 H    1    3.361931    3.246591   -0.459951      1.00       1.0079
      94     1 O    8   -1.099162   -1.369341    2.949888      6.00      15.9994
      95     2 H    1   -0.335406   -2.036901    3.107502      1.00       1.0079
      96     2 H    1   -1.847346   -1.991636    3.203214      1.00       1.0079
      97     1 O    8    2.071845   -5.650168    1.362908      6.00      15.9994
      98     2 H    1    1.204362   -6.136982    1.256069      1.00       1.0079
      99     2 H    1    2.450750   -5.885909    2.255821      1.00       1.0079
     100     1 O    8   -0.628031   -3.827349   -2.846086      6.00      15.9994
     101     2 H    1   -1.558364   -3.776964   -2.581114      1.00       1.0079
     102     2 H    1   -0.511229   -4.587952   -3.398223      1.00       1.0079
     103     1 O    8   -5.291843    2.062167    1.435301      6.00      15.9994
     104     2 H    1   -4.454945    1.877605    1.901455      1.00       1.0079
     105     2 H    1   -5.133594    1.919821    0.419723      1.00       1.0079
     106     1 O    8    1.959972   -3.424563   -5.267360      6.00      15.9994
     107     2 H    1    1.322556   -4.212309   -5.038883      1.00       1.0079
     108     2 H    1    1.299929   -2.771147   -5.498678      1.00       1.0079
     109     1 O    8   -1.193321    3.936851   -3.373747      6.00      15.9994
     110     2 H    1   -1.200301    3.980365   -4.358294      1.00       1.0079
     111     2 H    1   -0.740251    4.650096   -2.940559      1.00       1.0079
     112     1 O    8   -5.424398   -5.002981    4.278463      6.00      15.9994
     113     2 H    1   -6.116403   -4.512700    3.781732      1.00       1.0079
     114     2 H    1   -4.740320   -5.349861    3.692094      1.00       1.0079
     115     1 O    8    2.973298    5.793755    3.604183      6.00      15.9994
     116     2 H    1    3.417671    6.472671    4.169501      1.00       1.0079
     117     2 H    1    2.448520    5.204109    4.225087      1.00       1.0079
     118     1 O    8   -4.051130    1.544593   -5.062650      6.00      15.9994
     119     2 H    1   -3.538710    0.797484   -4.621055      1.00       1.0079
     120     2 H    1   -4.033382    2.351849   -4.430137      1.00       1.0079
     121     1 O    8    3.484773    0.599769    4.009149      6.00      15.9994
     122     2 H    1    2.789650    0.537511    3.268667      1.00       1.0079
     123     2 H    1    4.318998    0.415332    3.439528      1.00       1.0079
     124     1 O    8   -4.620748   -1.011762    4.004895      6.00      15.9994
     125     2 H    1   -5.347759   -1.244306    4.625324      1.00       1.0079
     126     2 H    1   -4.216388   -1.884479    3.842806      1.00       1.0079
     127     1 O    8   -0.216539    1.275147    3.116717      6.00      15.9994
     128     2 H    1    0.637178    1.413680    2.728697      1.00       1.0079
     129     2 H    1   -0.389412    0.322584    3.050879      1.00       1.0079
     130     1 O    8   -1.991535    5.069708    0.600019      6.00      15.9994
     131     2 H    1   -2.337650    4.234088    1.001390      1.00       1.0079
     132     2 H    1   -2.652025    5.747116    0.850662      1.00       1.0079
     133     1 O    8   -1.307547   -1.895612   -4.954292      6.00      15.9994
     134     2 H    1   -0.870125   -2.402819   -4.256374      1.00       1.0079
     135     2 H    1   -0.594969   -1.353212   -5.453243      1.00       1.0079
     136     1 O    8   -5.137345    1.806207   -1.286768      6.00      15.9994
     137     2 H    1   -4.698159    2.459748   -1.850567      1.00       1.0079
     138     2 H    1   -5.424553    1.125693   -1.863395      1.00       1.0079
     139     1 O    8   -7.383656   -1.211987   -1.950660      6.00      15.9994
     140     2 H    1   -6.421288   -1.037143   -2.146380      1.00       1.0079
     141     2 H    1   -7.480878   -1.531048   -1.033948      1.00       1.0079
     142     1 O    8   -0.463945    1.404847   -1.722864      6.00      15.9994
     143     2 H    1   -0.786735    2.186650   -2.196230      1.00       1.0079
     144     2 H    1    0.274393    0.986416   -2.221585      1.00       1.0079
     145     1 O    8   -0.029811   -6.521092   -1.093364      6.00      15.9994
     146     2 H    1    0.002142   -5.531145   -1.122665      1.00       1.0079
     147     2 H    1   -0.803113   -6.743514   -0.464856      1.00       1.0079
     148     1 O    8    5.709094   -1.692709    6.018549      6.00      15.9994
     149     2 H    1    6.022772   -2.510238    6.419541      1.00       1.0079
     150     2 H    1    5.679350   -0.901240    6.652196      1.00       1.0079
     151     1 O    8   -2.596298   -5.768397   -4.219577      6.00      15.9994
     152     2 H    1   -2.604903   -6.707767   -4.472834      1.00       1.0079
     153     2 H    1   -3.435454   -5.564584   -3.848351      1.00       1.0079
     154     1 O    8   -4.944969   -1.408672   -3.247339      6.00      15.9994
     155     2 H    1   -4.891302   -2.221732   -3.767422      1.00       1.0079
     156     2 H    1   -3.968955   -1.096486   -3.234198      1.00       1.0079
     157     1 O    8    2.298375   -8.080949   -1.213241      6.00      15.9994
     158     2 H    1    1.300368   -8.063628   -1.114392      1.00       1.0079
     159     2 H    1    2.516194   -7.105367   -1.176852      1.00       1.0079
     160     1 O    8    6.775436   -3.896533   -5.335926      6.00      15.9994
     161     2 H    1    7.549942   -4.100300   -5.821362      1.00       1.0079
     162     2 H    1    6.043016   -4.432815   -5.647961      1.00       1.0079
     163     1 O    8   -0.342484    4.965811    2.950829      6.00      15.9994
     164     2 H    1   -0.641824    4.167256    3.471638      1.00       1.0079
     165     2 H    1   -0.675974    4.869938    2.055138      1.00       1.0079
     166     1 O    8   -2.805629   -4.004823    6.223906      6.00      15.9994
     167     2 H    1   -2.385060   -4.632289    6.845556      1.00       1.0079
     168     2 H    1   -2.379735   -3.149823    6.433016      1.00       1.0079
     169     1 O    8   -2.792511   -3.473224    3.461233      6.00      15.9994
     170     2 H    1   -3.112954   -3.862064    4.274613      1.00       1.0079
     171     2 H    1   -3.285609   -4.027145    2.827441      1.00       1.0079
     172     1 O    8    2.486771    4.680362   -3.951121      6.00      15.9994
     173     2 H    1    3.397137    4.508164   -3.629816      1.00       1.0079
     174     2 H    1    1.979071    4.624068   -3.115244      1.00       1.0079
     175     1 O    8    1.659077    0.052314   -3.106919      6.00      15.9994
     176     2 H    1    1.511356   -0.599677   -2.356369      1.00       1.0079
     177     2 H    1    2.506872    0.526419   -3.066152      1.00       1.0079
     178     1 O    8   -1.202305   -8.160348   -6.367070      6.00      15.9994
     179     2 H    1   -0.905516   -9.069055   -6.570527      1.00       1.0079
     180     2 H    1   -2.179810   -8.074002   -6.546491      1.00       1.0079
     181     1 O    8   -0.476107    8.385162    0.598747      6.00      15.9994
     182     2 H    1    0.363244    8.309655    1.105835      1.00       1.0079
     183     2 H    1   -1.285239    8.075385    1.058726      1.00       1.0079
     184     1 O    8    5.906545   -6.798977   -6.600440      6.00      15.9994
     185     2 H    1    5.413015   -7.623317   -6.913788      1.00       1.0079
     186     2 H    1    6.217751   -6.234454   -7.319872      1.00       1.0079
     187     1 O    8   -0.359433   -5.262244    4.670430      6.00      15.9994
     188     2 H    1   -0.415613   -6.098882    4.136748      1.00       1.0079
     189     2 H    1   -1.293113   -5.154797    4.949758      1.00       1.0079
     190     1 O    8   -3.827313   -5.527924    1.763366      6.00      15.9994
     191     2 H    1   -4.138854   -6.362200    2.151380      1.00       1.0079
     192     2 H    1   -4.395567   -5.321694    1.040595      1.00       1.0079




 SCF PARAMETERS         Density guess:                                   RESTART
                        --------------------------------------------------------
                        max_scf:                                              30
                        max_scf_history:                                       0
                        max_diis:                                              4
                        --------------------------------------------------------
                        eps_scf:                                        1.00E-06
                        eps_scf_history:                                0.00E+00
                        eps_diis:                                       1.00E-01
                        eps_eigval:                                     1.00E-05
                        --------------------------------------------------------
                        level_shift [a.u.]:                                 0.00
                        --------------------------------------------------------
                        Outer loop SCF in use 
                        No variables optimised in outer loop
                        eps_scf                                         1.00E-06
                        max_scf                                               10
                        No outer loop optimization
                        step_size                                       5.00E-01

 PW_GRID| Information for grid number                                          1
 PW_GRID| Grid distributed over                                    64 processors
 PW_GRID| Real space group dimensions                                    64    1
 PW_GRID| the grid is blocked:                                                NO
 PW_GRID| Cutoff [a.u.]                                                    200.0
 PW_GRID| spherical cutoff:                                                   NO
 PW_GRID|   Bounds   1            -75      74                Points:         150
 PW_GRID|   Bounds   2            -75      74                Points:         150
 PW_GRID|   Bounds   3            -75      74                Points:         150
 PW_GRID| Volume element (a.u.^3)  0.3831E-02     Volume (a.u.^3)     12928.8946
 PW_GRID| Grid span                                                    FULLSPACE
 PW_GRID|   Distribution                         Average         Max         Min
 PW_GRID|   G-Vectors                            52734.4       52800       52650
 PW_GRID|   G-Rays                                 351.6         352         351
 PW_GRID|   Real Space Points                    52734.4       67500       45000

 PW_GRID| Information for grid number                                          2
 PW_GRID| Grid distributed over                                    64 processors
 PW_GRID| Real space group dimensions                                    64    1
 PW_GRID| the grid is blocked:                                                NO
 PW_GRID| Cutoff [a.u.]                                                     66.7
 PW_GRID| spherical cutoff:                                                   NO
 PW_GRID|   Bounds   1            -45      44                Points:          90
 PW_GRID|   Bounds   2            -45      44                Points:          90
 PW_GRID|   Bounds   3            -45      44                Points:          90
 PW_GRID| Volume element (a.u.^3)  0.1774E-01     Volume (a.u.^3)     12928.8946
 PW_GRID| Grid span                                                    FULLSPACE
 PW_GRID|   Distribution                         Average         Max         Min
 PW_GRID|   G-Vectors                            11390.6       11430       11340
 PW_GRID|   G-Rays                                 126.6         127         126
 PW_GRID|   Real Space Points                    11390.6       16200        8100

 PW_GRID| Information for grid number                                          3
 PW_GRID| Grid distributed over                                    64 processors
 PW_GRID| Real space group dimensions                                     8    8
 PW_GRID| the grid is blocked:                                                NO
 PW_GRID| Cutoff [a.u.]                                                     22.2
 PW_GRID| spherical cutoff:                                                   NO
 PW_GRID|   Bounds   1            -27      26                Points:          54
 PW_GRID|   Bounds   2            -27      26                Points:          54
 PW_GRID|   Bounds   3            -27      26                Points:          54
 PW_GRID| Volume element (a.u.^3)  0.8211E-01     Volume (a.u.^3)     12928.8946
 PW_GRID| Grid span                                                    FULLSPACE
 PW_GRID|   Distribution                         Average         Max         Min
 PW_GRID|   G-Vectors                             2460.4        2592        2322
 PW_GRID|   G-Rays                                  45.6          48          43
 PW_GRID|   Real Space Points                     2460.4        2646        1944

 PW_GRID| Information for grid number                                          4
 PW_GRID| Grid distributed over                                    64 processors
 PW_GRID| Real space group dimensions                                     8    8
 PW_GRID| the grid is blocked:                                                NO
 PW_GRID| Cutoff [a.u.]                                                      7.4
 PW_GRID| spherical cutoff:                                                   NO
 PW_GRID|   Bounds   1            -15      14                Points:          30
 PW_GRID|   Bounds   2            -15      14                Points:          30
 PW_GRID|   Bounds   3            -15      14                Points:          30
 PW_GRID| Volume element (a.u.^3)  0.4788         Volume (a.u.^3)     12928.8946
 PW_GRID| Grid span                                                    FULLSPACE
 PW_GRID|   Distribution                         Average         Max         Min
 PW_GRID|   G-Vectors                              421.9         480         390
 PW_GRID|   G-Rays                                  14.1          16          13
 PW_GRID|   Real Space Points                      421.9         480         270

 POISSON| Solver                                                        PERIODIC
 POISSON| Periodicity                                                        XYZ

 RS_GRID| Information for grid number                                          1
 RS_GRID|   Bounds   1            -75      74                Points:         150
 RS_GRID|   Bounds   2            -75      74                Points:         150
 RS_GRID|   Bounds   3            -75      74                Points:         150
 RS_GRID| Real space distribution over                                  4 groups
 RS_GRID| Real space distribution along direction                              1
 RS_GRID| Border size                                                         19
 RS_GRID| Real space distribution over                                  4 groups
 RS_GRID| Real space distribution along direction                              2
 RS_GRID| Border size                                                         19
 RS_GRID| Real space distribution over                                  4 groups
 RS_GRID| Real space distribution along direction                              3
 RS_GRID| Border size                                                         19
 RS_GRID|   Distribution                         Average         Max         Min
 RS_GRID|   Planes                                  75.5          76          75
 RS_GRID|   Distribution                         Average         Max         Min
 RS_GRID|   Planes                                  75.5          76          75
 RS_GRID|   Distribution                         Average         Max         Min
 RS_GRID|   Planes                                  75.5          76          75

 RS_GRID| Information for grid number                                          2
 RS_GRID|   Bounds   1            -45      44                Points:          90
 RS_GRID|   Bounds   2            -45      44                Points:          90
 RS_GRID|   Bounds   3            -45      44                Points:          90
 RS_GRID| Real space distribution over                                  4 groups
 RS_GRID| Real space distribution along direction                              1
 RS_GRID| Border size                                                         20
 RS_GRID| Real space distribution over                                  4 groups
 RS_GRID| Real space distribution along direction                              2
 RS_GRID| Border size                                                         20
 RS_GRID| Real space distribution over                                  4 groups
 RS_GRID| Real space distribution along direction                              3
 RS_GRID| Border size                                                         20
 RS_GRID|   Distribution                         Average         Max         Min
 RS_GRID|   Planes                                  62.5          63          62
 RS_GRID|   Distribution                         Average         Max         Min
 RS_GRID|   Planes                                  62.5          63          62
 RS_GRID|   Distribution                         Average         Max         Min
 RS_GRID|   Planes                                  62.5          63          62

 RS_GRID| Information for grid number                                          3
 RS_GRID|   Bounds   1            -27      26                Points:          54
 RS_GRID|   Bounds   2            -27      26                Points:          54
 RS_GRID|   Bounds   3            -27      26                Points:          54
 RS_GRID| Real space fully replicated
 RS_GRID| Group size                                                           1

 RS_GRID| Information for grid number                                          4
 RS_GRID|   Bounds   1            -15      14                Points:          30
 RS_GRID|   Bounds   2            -15      14                Points:          30
 RS_GRID|   Bounds   3            -15      14                Points:          30
 RS_GRID| Real space fully replicated
 RS_GRID| Group size                                                           1

 DISTRIBUTION OF THE PARTICLES (ROWS)
              Process row      Number of particles         Number of matrix rows
                        0                       24                            -1
                        1                       24                            -1
                        2                       24                            -1
                        3                       24                            -1
                        4                       24                            -1
                        5                       24                            -1
                        6                       24                            -1
                        7                       24                            -1
                      Sum                      192                            -1

 DISTRIBUTION OF THE PARTICLES (COLUMNS)
              Process col      Number of particles      Number of matrix columns
                        0                       24                            -1
                        1                       24                            -1
                        2                       24                            -1
                        3                       24                            -1
                        4                       24                            -1
                        5                       24                            -1
                        6                       24                            -1
                        7                       24                            -1
                      Sum                      192                            -1

  HFX_INFO| Replica ID:                                                        1
  HFX_INFO| EPS_SCHWARZ:                                                 1.0E-06
  HFX_INFO| EPS_SCHWARZ_FORCES                                           1.0E-06
  HFX_INFO| EPS_STORAGE_SCALING:                                         1.0E-01
  HFX_INFO| NBINS:                                                            64
  HFX_INFO| BLOCK_SIZE:                                                        3
  HFX_INFO| FRACTION:                                               0.9000000000
  HFX_INFO| Interaction Potential:                                     TRUNCATED
  HFX_INFO| Cutoff Radius [angstrom]:                               6.0000000000
  HFX_INFO| NUMBER_OF_SHELLS:                                               AUTO
  HFX_INFO| Number of periodic shells considered:                             -1
  HFX_INFO| Number of periodic cells considered:                              27


 DISTRIBUTION OF THE NEIGHBOR LISTS
              Total number of particle pairs:                              21379
              Total number of matrix elements:                           1231147
              Average number of particle pairs:                              335
              Maximum number of particle pairs:                              370
              Average number of matrix element:                            19237
              Maximum number of matrix elements:                           21624


 DISTRIBUTION OF THE OVERLAP MATRIX
              Number  of non-zero blocks:                                  16652
              Percentage non-zero blocks:                                  89.87
              Average number of blocks per CPU:                              261
              Maximum number of blocks per CPU:                              279
              Average number of matrix elements per CPU:                   15194
              Maximum number of matrix elements per CPU:                   16625

 Number of electrons:                                                        512
 Number of occupied orbitals:                                                256
 Number of molecular orbitals:                                               256

 Number of orbital functions:                                               1472
 Number of independent orbital functions:                                   1472

 Extrapolation method: initial_guess


 SCF WAVEFUNCTION OPTIMIZATION

  ----------------------------------- OT ---------------------------------------

  Allowing for rotations:  F
  Optimizing orbital energies:  F
  Minimizer      : DIIS                : direct inversion
                                         in the iterative subspace
                            using      : -   7 DIIS vectors
                                         - safer DIIS on
  Preconditioner : FULL_SINGLE_INVERSE : inversion of H + eS - 2*(Sc)(c^T*H*c+const)(Sc)^T
  Precond_solver : DEFAULT
  stepsize       :    0.08000000
  energy_gap     :    0.08000000

  eps_taylor     :   0.10000E-15
  max_taylor     :             4

  mixed_precision    : F

  ----------------------------------- OT ---------------------------------------

  Step     Update method      Time    Convergence         Total energy    Change
  ------------------------------------------------------------------------------

  Trace(PS):                                  512.0000000000
  Electronic density on regular grids:       -511.9999999886        0.0000000114
  Core density on regular grids:              511.9999999836       -0.0000000164
  Total charge density on r-space grids:       -0.0000000051
  Total charge density g-space grids:          -0.0000000051


  HFX_MEM_INFO| Est. max. program size before HFX [MB's]:                    152

 *** 12:09:46 WARNING in hfx_energy_potential:integrate_four_center :: The ***
 *** Kohn Sham matrix is not 100% occupied. This may result in uncorrect   ***
 *** Hartree-Fock results. Try to decrease EPS_PGF_ORB and                 ***
 *** EPS_FILTER_MATRIX in the QS section.                                  ***

  HFX_MEM_INFO| Number of cart. primitive ERI's calculated:          16091091976
  HFX_MEM_INFO| Number of sph. ERI's calculated:                      3464714451
  HFX_MEM_INFO| Number of sph. ERI's stored in-core:                  1148714899
  HFX_MEM_INFO| Number of sph. ERI's stored on disk:                           0
  HFX_MEM_INFO| Number of sph. ERI's calculated on the fly:                    0
  HFX_MEM_INFO| Total memory consumption ERI's RAM [MB's]:                  1110
  HFX_MEM_INFO| Whereof max-vals [MB's]:                                      62
  HFX_MEM_INFO| Total compression factor ERI's RAM:                         7.90
  HFX_MEM_INFO| Total memory consumption ERI's disk [MB's]:                    0
  HFX_MEM_INFO| Total compression factor ERI's disk:                        0.00
  HFX_MEM_INFO| Size of density/Fock matrix [MB's]:                           14
  HFX_MEM_INFO| Size of buffers [MB's]:                                        2
  HFX_MEM_INFO| Number of periodic image cells considered:                    27
  HFX_MEM_INFO| Est. max. program size after HFX  [MB's]:                    191

     1 OT DIIS     0.80E-01   19.6     0.00205555     -1101.1167523947 -1.10E+03

  Trace(PS):                                  512.0000000000
  Electronic density on regular grids:       -511.9999999887        0.0000000113
  Core density on regular grids:              511.9999999836       -0.0000000164
  Total charge density on r-space grids:       -0.0000000051
  Total charge density g-space grids:          -0.0000000051

     2 OT DIIS     0.80E-01    6.9     0.00149918     -1101.2267318520 -1.10E-01

  Trace(PS):                                  512.0000000000
  Electronic density on regular grids:       -511.9999999888        0.0000000112
  Core density on regular grids:              511.9999999836       -0.0000000164
  Total charge density on r-space grids:       -0.0000000052
  Total charge density g-space grids:          -0.0000000052

     3 OT DIIS     0.80E-01    5.9     0.00030422     -1101.3544483235 -1.28E-01

  Trace(PS):                                  512.0000000000
  Electronic density on regular grids:       -511.9999999888        0.0000000112
  Core density on regular grids:              511.9999999836       -0.0000000164
  Total charge density on r-space grids:       -0.0000000052
  Total charge density g-space grids:          -0.0000000052

     4 OT DIIS     0.80E-01    5.4     0.00011056     -1101.3595596389 -5.11E-03

  Trace(PS):                                  512.0000000000
  Electronic density on regular grids:       -511.9999999888        0.0000000112
  Core density on regular grids:              511.9999999836       -0.0000000164
  Total charge density on r-space grids:       -0.0000000052
  Total charge density g-space grids:          -0.0000000052

     5 OT DIIS     0.80E-01    7.7     0.00004828     -1101.3602888124 -7.29E-04

  Trace(PS):                                  512.0000000000
  Electronic density on regular grids:       -511.9999999888        0.0000000112
  Core density on regular grids:              511.9999999836       -0.0000000164
  Total charge density on r-space grids:       -0.0000000052
  Total charge density g-space grids:          -0.0000000052

     6 OT DIIS     0.80E-01    4.6     0.00002237     -1101.3604367733 -1.48E-04

  Trace(PS):                                  512.0000000000
  Electronic density on regular grids:       -511.9999999888        0.0000000112
  Core density on regular grids:              511.9999999836       -0.0000000164
  Total charge density on r-space grids:       -0.0000000052
  Total charge density g-space grids:          -0.0000000052

     7 OT DIIS     0.80E-01    4.4     0.00000798     -1101.3604637844 -2.70E-05

  Trace(PS):                                  512.0000000000
  Electronic density on regular grids:       -511.9999999888        0.0000000112
  Core density on regular grids:              511.9999999836       -0.0000000164
  Total charge density on r-space grids:       -0.0000000052
  Total charge density g-space grids:          -0.0000000052

     8 OT DIIS     0.80E-01    7.9     0.00000288     -1101.3604678222 -4.04E-06

  Trace(PS):                                  512.0000000000
  Electronic density on regular grids:       -511.9999999888        0.0000000112
  Core density on regular grids:              511.9999999836       -0.0000000164
  Total charge density on r-space grids:       -0.0000000052
  Total charge density g-space grids:          -0.0000000052

     9 OT DIIS     0.80E-01    4.5     0.00000106     -1101.3604683445 -5.22E-07

  Trace(PS):                                  512.0000000000
  Electronic density on regular grids:       -511.9999999888        0.0000000112
  Core density on regular grids:              511.9999999836       -0.0000000164
  Total charge density on r-space grids:       -0.0000000052
  Total charge density g-space grids:          -0.0000000052

    10 OT DIIS     0.80E-01    4.5     0.00000059     -1101.3604683911 -4.66E-08

  *** SCF run converged in    10 steps ***


  Electronic density on regular grids:       -511.9999999888        0.0000000112
  Core density on regular grids:              511.9999999836       -0.0000000164
  Total charge density on r-space grids:       -0.0000000052
  Total charge density g-space grids:          -0.0000000052

  Overlap energy of the core charge distribution:               0.00000237129466
  Self energy of the core charge distribution:              -2838.21791979121008
  Core Hamiltonian energy:                                    828.09159452485642
  Hartree energy:                                            1180.77795435449207
  Exchange-correlation energy:                                -44.13043274254884
  Hartree-Fock Exchange energy:                              -227.63530011981908
  Dispersion energy:                                           -0.24636698815184

  Total energy:                                             -1101.36046839108667

  outer SCF iter =    1 RMS gradient =   0.59E-06 energy =      -1101.3604683911
  outer SCF loop converged in   1 iterations or   10 steps



 MULLIKEN POPULATION ANALYSIS

 #  Atom  Element  Kind  Atomic population                Net charge
       1     O        1          6.642039                 -0.642039
       2     H        2          0.695173                  0.304827
       3     H        2          0.663658                  0.336342
       4     O        1          6.623154                 -0.623154
       5     H        2          0.711761                  0.288239
       6     H        2          0.641348                  0.358652
       7     O        1          6.619492                 -0.619492
       8     H        2          0.656952                  0.343048
       9     H        2          0.718912                  0.281088
      10     O        1          6.640294                 -0.640294
      11     H        2          0.715327                  0.284673
      12     H        2          0.680752                  0.319248
      13     O        1          6.637323                 -0.637323
      14     H        2          0.668267                  0.331733
      15     H        2          0.700106                  0.299894
      16     O        1          6.751171                 -0.751171
      17     H        2          0.628571                  0.371429
      18     H        2          0.628091                  0.371909
      19     O        1          6.632750                 -0.632750
      20     H        2          0.630875                  0.369125
      21     H        2          0.730352                  0.269648
      22     O        1          6.562426                 -0.562426
      23     H        2          0.736223                  0.263777
      24     H        2          0.699205                  0.300795
      25     O        1          6.615289                 -0.615289
      26     H        2          0.721193                  0.278807
      27     H        2          0.653098                  0.346902
      28     O        1          6.643214                 -0.643214
      29     H        2          0.694751                  0.305249
      30     H        2          0.673045                  0.326955
      31     O        1          6.584913                 -0.584913
      32     H        2          0.688390                  0.311610
      33     H        2          0.731986                  0.268014
      34     O        1          6.741431                 -0.741431
      35     H        2          0.664188                  0.335812
      36     H        2          0.605397                  0.394603
      37     O        1          6.635928                 -0.635928
      38     H        2          0.673913                  0.326087
      39     H        2          0.666890                  0.333110
      40     O        1          6.554885                 -0.554885
      41     H        2          0.677242                  0.322758
      42     H        2          0.762420                  0.237580
      43     O        1          6.743708                 -0.743708
      44     H        2          0.638259                  0.361741
      45     H        2          0.648603                  0.351397
      46     O        1          6.643726                 -0.643726
      47     H        2          0.699411                  0.300589
      48     H        2          0.662064                  0.337936
      49     O        1          6.681479                 -0.681479
      50     H        2          0.635680                  0.364320
      51     H        2          0.683414                  0.316586
      52     O        1          6.662477                 -0.662477
      53     H        2          0.693646                  0.306354
      54     H        2          0.662277                  0.337723
      55     O        1          6.726169                 -0.726169
      56     H        2          0.655658                  0.344342
      57     H        2          0.623914                  0.376086
      58     O        1          6.657827                 -0.657827
      59     H        2          0.676308                  0.323692
      60     H        2          0.660610                  0.339390
      61     O        1          6.709419                 -0.709419
      62     H        2          0.662983                  0.337017
      63     H        2          0.621274                  0.378726
      64     O        1          6.629353                 -0.629353
      65     H        2          0.706769                  0.293231
      66     H        2          0.670767                  0.329233
      67     O        1          6.686514                 -0.686514
      68     H        2          0.665465                  0.334535
      69     H        2          0.656155                  0.343845
      70     O        1          6.593131                 -0.593131
      71     H        2          0.685172                  0.314828
      72     H        2          0.729653                  0.270347
      73     O        1          6.647737                 -0.647737
      74     H        2          0.666442                  0.333558
      75     H        2          0.682681                  0.317319
      76     O        1          6.618027                 -0.618027
      77     H        2          0.669234                  0.330766
      78     H        2          0.693345                  0.306655
      79     O        1          6.649502                 -0.649502
      80     H        2          0.636617                  0.363383
      81     H        2          0.718782                  0.281218
      82     O        1          6.727775                 -0.727775
      83     H        2          0.612368                  0.387632
      84     H        2          0.653036                  0.346964
      85     O        1          6.752445                 -0.752445
      86     H        2          0.650683                  0.349317
      87     H        2          0.583412                  0.416588
      88     O        1          6.705597                 -0.705597
      89     H        2          0.623313                  0.376687
      90     H        2          0.651937                  0.348063
      91     O        1          6.628616                 -0.628616
      92     H        2          0.733266                  0.266734
      93     H        2          0.631326                  0.368674
      94     O        1          6.702605                 -0.702605
      95     H        2          0.669648                  0.330352
      96     H        2          0.625484                  0.374516
      97     O        1          6.685447                 -0.685447
      98     H        2          0.703289                  0.296711
      99     H        2          0.607603                  0.392397
     100     O        1          6.625863                 -0.625863
     101     H        2          0.678565                  0.321435
     102     H        2          0.685659                  0.314341
     103     O        1          6.676215                 -0.676215
     104     H        2          0.710912                  0.289088
     105     H        2          0.599166                  0.400834
     106     O        1          6.632177                 -0.632177
     107     H        2          0.670943                  0.329057
     108     H        2          0.732986                  0.267014
     109     O        1          6.661611                 -0.661611
     110     H        2          0.662017                  0.337983
     111     H        2          0.680272                  0.319728
     112     O        1          6.633201                 -0.633201
     113     H        2          0.652132                  0.347868
     114     H        2          0.728148                  0.271852
     115     O        1          6.708665                 -0.708665
     116     H        2          0.659958                  0.340042
     117     H        2          0.640094                  0.359906
     118     O        1          6.722437                 -0.722437
     119     H        2          0.653958                  0.346042
     120     H        2          0.635706                  0.364294
     121     O        1          6.645418                 -0.645418
     122     H        2          0.693553                  0.306447
     123     H        2          0.658104                  0.341896
     124     O        1          6.602545                 -0.602545
     125     H        2          0.672005                  0.327995
     126     H        2          0.723548                  0.276452
     127     O        1          6.655279                 -0.655279
     128     H        2          0.665826                  0.334174
     129     H        2          0.653426                  0.346574
     130     O        1          6.670003                 -0.670003
     131     H        2          0.657730                  0.342270
     132     H        2          0.682271                  0.317729
     133     O        1          6.693067                 -0.693067
     134     H        2          0.704423                  0.295577
     135     H        2          0.596923                  0.403077
     136     O        1          6.605971                 -0.605971
     137     H        2          0.653931                  0.346069
     138     H        2          0.743142                  0.256858
     139     O        1          6.675518                 -0.675518
     140     H        2          0.666219                  0.333781
     141     H        2          0.659644                  0.340356
     142     O        1          6.620892                 -0.620892
     143     H        2          0.694074                  0.305926
     144     H        2          0.684764                  0.315236
     145     O        1          6.693246                 -0.693246
     146     H        2          0.678718                  0.321282
     147     H        2          0.616790                  0.383210
     148     O        1          6.695895                 -0.695895
     149     H        2          0.672053                  0.327947
     150     H        2          0.643870                  0.356130
     151     O        1          6.567715                 -0.567715
     152     H        2          0.725280                  0.274720
     153     H        2          0.704967                  0.295033
     154     O        1          6.629413                 -0.629413
     155     H        2          0.712879                  0.287121
     156     H        2          0.648765                  0.351235
     157     O        1          6.641975                 -0.641975
     158     H        2          0.674158                  0.325842
     159     H        2          0.681616                  0.318384
     160     O        1          6.576121                 -0.576121
     161     H        2          0.681357                  0.318643
     162     H        2          0.713120                  0.286880
     163     O        1          6.607770                 -0.607770
     164     H        2          0.704699                  0.295301
     165     H        2          0.705635                  0.294365
     166     O        1          6.650458                 -0.650458
     167     H        2          0.684598                  0.315402
     168     H        2          0.670251                  0.329749
     169     O        1          6.601608                 -0.601608
     170     H        2          0.698950                  0.301050
     171     H        2          0.688379                  0.311621
     172     O        1          6.649848                 -0.649848
     173     H        2          0.651573                  0.348427
     174     H        2          0.717444                  0.282556
     175     O        1          6.722482                 -0.722482
     176     H        2          0.636329                  0.363671
     177     H        2          0.641046                  0.358954
     178     O        1          6.671675                 -0.671675
     179     H        2          0.660519                  0.339481
     180     H        2          0.641506                  0.358494
     181     O        1          6.588011                 -0.588011
     182     H        2          0.707580                  0.292420
     183     H        2          0.709543                  0.290457
     184     O        1          6.670753                 -0.670753
     185     H        2          0.667354                  0.332646
     186     H        2          0.671976                  0.328024
     187     O        1          6.623987                 -0.623987
     188     H        2          0.648971                  0.351029
     189     H        2          0.727307                  0.272693
     190     O        1          6.675813                 -0.675813
     191     H        2          0.653120                  0.346880
     192     H        2          0.659421                  0.340579
 # Total charge                512.000000                  0.000000


 !-----------------------------------------------------------------------------!
                           Hirschfeld Charges

  #Atom  Element  Kind  Ref Charge     Population                     Net charge
      1       O      1       6.000          6.551                         -0.551
      2       H      2       1.000          0.716                          0.284
      3       H      2       1.000          0.733                          0.267
      4       O      1       6.000          6.530                         -0.530
      5       H      2       1.000          0.727                          0.273
      6       H      2       1.000          0.710                          0.290
      7       O      1       6.000          6.515                         -0.515
      8       H      2       1.000          0.736                          0.264
      9       H      2       1.000          0.720                          0.280
     10       O      1       6.000          6.506                         -0.506
     11       H      2       1.000          0.734                          0.266
     12       H      2       1.000          0.735                          0.265
     13       O      1       6.000          6.536                         -0.536
     14       H      2       1.000          0.720                          0.280
     15       H      2       1.000          0.723                          0.277
     16       O      1       6.000          6.550                         -0.550
     17       H      2       1.000          0.721                          0.279
     18       H      2       1.000          0.742                          0.258
     19       O      1       6.000          6.542                         -0.542
     20       H      2       1.000          0.741                          0.259
     21       H      2       1.000          0.732                          0.268
     22       O      1       6.000          6.543                         -0.543
     23       H      2       1.000          0.719                          0.281
     24       H      2       1.000          0.728                          0.272
     25       O      1       6.000          6.541                         -0.541
     26       H      2       1.000          0.731                          0.269
     27       H      2       1.000          0.730                          0.270
     28       O      1       6.000          6.533                         -0.533
     29       H      2       1.000          0.734                          0.266
     30       H      2       1.000          0.725                          0.275
     31       O      1       6.000          6.593                         -0.593
     32       H      2       1.000          0.718                          0.282
     33       H      2       1.000          0.745                          0.255
     34       O      1       6.000          6.562                         -0.562
     35       H      2       1.000          0.729                          0.271
     36       H      2       1.000          0.735                          0.265
     37       O      1       6.000          6.527                         -0.527
     38       H      2       1.000          0.728                          0.272
     39       H      2       1.000          0.725                          0.275
     40       O      1       6.000          6.533                         -0.533
     41       H      2       1.000          0.731                          0.269
     42       H      2       1.000          0.725                          0.275
     43       O      1       6.000          6.540                         -0.540
     44       H      2       1.000          0.726                          0.274
     45       H      2       1.000          0.752                          0.248
     46       O      1       6.000          6.527                         -0.527
     47       H      2       1.000          0.740                          0.260
     48       H      2       1.000          0.741                          0.259
     49       O      1       6.000          6.575                         -0.575
     50       H      2       1.000          0.744                          0.256
     51       H      2       1.000          0.731                          0.269
     52       O      1       6.000          6.570                         -0.570
     53       H      2       1.000          0.737                          0.263
     54       H      2       1.000          0.745                          0.255
     55       O      1       6.000          6.515                         -0.515
     56       H      2       1.000          0.725                          0.275
     57       H      2       1.000          0.734                          0.266
     58       O      1       6.000          6.552                         -0.552
     59       H      2       1.000          0.716                          0.284
     60       H      2       1.000          0.735                          0.265
     61       O      1       6.000          6.502                         -0.502
     62       H      2       1.000          0.723                          0.277
     63       H      2       1.000          0.725                          0.275
     64       O      1       6.000          6.544                         -0.544
     65       H      2       1.000          0.736                          0.264
     66       H      2       1.000          0.739                          0.261
     67       O      1       6.000          6.537                         -0.537
     68       H      2       1.000          0.746                          0.254
     69       H      2       1.000          0.741                          0.259
     70       O      1       6.000          6.552                         -0.552
     71       H      2       1.000          0.744                          0.256
     72       H      2       1.000          0.717                          0.283
     73       O      1       6.000          6.513                         -0.513
     74       H      2       1.000          0.739                          0.261
     75       H      2       1.000          0.737                          0.263
     76       O      1       6.000          6.514                         -0.514
     77       H      2       1.000          0.727                          0.273
     78       H      2       1.000          0.729                          0.271
     79       O      1       6.000          6.519                         -0.519
     80       H      2       1.000          0.730                          0.270
     81       H      2       1.000          0.709                          0.291
     82       O      1       6.000          6.563                         -0.563
     83       H      2       1.000          0.740                          0.260
     84       H      2       1.000          0.723                          0.277
     85       O      1       6.000          6.527                         -0.527
     86       H      2       1.000          0.730                          0.270
     87       H      2       1.000          0.717                          0.283
     88       O      1       6.000          6.511                         -0.511
     89       H      2       1.000          0.723                          0.277
     90       H      2       1.000          0.737                          0.263
     91       O      1       6.000          6.542                         -0.542
     92       H      2       1.000          0.723                          0.277
     93       H      2       1.000          0.739                          0.261
     94       O      1       6.000          6.540                         -0.540
     95       H      2       1.000          0.722                          0.278
     96       H      2       1.000          0.726                          0.274
     97       O      1       6.000          6.544                         -0.544
     98       H      2       1.000          0.714                          0.286
     99       H      2       1.000          0.737                          0.263
    100       O      1       6.000          6.519                         -0.519
    101       H      2       1.000          0.728                          0.272
    102       H      2       1.000          0.727                          0.273
[...]
    181       O      1       6.000          6.559                         -0.559
    182       H      2       1.000          0.718                          0.282
    183       H      2       1.000          0.709                          0.291
    184       O      1       6.000          6.568                         -0.568
    185       H      2       1.000          0.724                          0.276
    186       H      2       1.000          0.752                          0.248
    187       O      1       6.000          6.552                         -0.552
    188       H      2       1.000          0.736                          0.264
    189       H      2       1.000          0.727                          0.273
    190       O      1       6.000          6.523                         -0.523
    191       H      2       1.000          0.743                          0.257
    192       H      2       1.000          0.736                          0.264

  Total Charge                                                            -0.000
 !-----------------------------------------------------------------------------!
  
  Eigenvalues of the occupied subspace spin            1
 ---------------------------------------------
      -1.26058100     -1.25676662     -1.25539936     -1.25266745
      -1.25096319     -1.24917356     -1.24798711     -1.24717879
      -1.24687119     -1.24430407     -1.24230985     -1.24103245
      -1.23935542     -1.23767866     -1.23714323     -1.23706870
      -1.23568487     -1.23463155     -1.23178748     -1.23144918
      -1.23056248     -1.22939902     -1.22752120     -1.22653057
      -1.22624377     -1.22496553     -1.22441674     -1.22363225
      -1.22278469     -1.22045758     -1.21970339     -1.21943095
      -1.21917638     -1.21848526     -1.21799576     -1.21684975
      -1.21590533     -1.21391275     -1.21344143     -1.21253558
      -1.21049757     -1.21042612     -1.20968709     -1.20936291
      -1.20764574     -1.20685740     -1.20524227     -1.20466658
      -1.20374430     -1.20305878     -1.20127092     -1.19978712
      -1.19676238     -1.19620312     -1.19486624     -1.19159193
      -1.19045830     -1.18860605     -1.18680777     -1.18349626
      -1.18315987     -1.17952829     -1.17139875     -1.16376329
      -0.64678099     -0.64113729     -0.63799572     -0.63571431
      -0.63499919     -0.63360946     -0.63328283     -0.63244288
      -0.62931856     -0.62848706     -0.62712882     -0.62574481
      -0.62518792     -0.62353560     -0.62287985     -0.62024136
      -0.61932339     -0.61823600     -0.61742136     -0.61652868
      -0.61510117     -0.61439606     -0.61409828     -0.61236471
      -0.61036794     -0.60986716     -0.60887896     -0.60773737
      -0.60714023     -0.60638990     -0.60535568     -0.60376057
      -0.60298046     -0.60142118     -0.60038229     -0.59913765
      -0.59873155     -0.59825986     -0.59805528     -0.59770727
      -0.59702188     -0.59655052     -0.59590660     -0.59521411
      -0.59348407     -0.59277046     -0.59218987     -0.59001122
      -0.58967448     -0.58914971     -0.58810451     -0.58743592
      -0.58461682     -0.58325890     -0.58172691     -0.57756191
      -0.57651997     -0.57369922     -0.57108813     -0.56916699
      -0.56749811     -0.56421241     -0.56176594     -0.54256759
      -0.53145285     -0.52751988     -0.52327167     -0.52229581
      -0.52077231     -0.51781699     -0.51686638     -0.51269479
      -0.51209468     -0.51071782     -0.50989809     -0.50598652
      -0.50194826     -0.50138943     -0.49703332     -0.49477746
      -0.49426687     -0.49348547     -0.49269491     -0.49093873
      -0.48847222     -0.48607987     -0.48333833     -0.48144732
      -0.48110678     -0.47840589     -0.47693487     -0.47524228
      -0.47124535     -0.47049115     -0.46851319     -0.46637544
      -0.46517300     -0.46418014     -0.46389131     -0.46222209
      -0.46001899     -0.45949003     -0.45715854     -0.45614912
      -0.45422179     -0.45359708     -0.45174583     -0.45064757
      -0.44932469     -0.44816069     -0.44653699     -0.44292112
      -0.44247613     -0.44178146     -0.43994088     -0.43795204
      -0.43710122     -0.43602357     -0.43572156     -0.43354610
      -0.42940571     -0.42831967     -0.42733613     -0.42637799
      -0.42419960     -0.42260226     -0.41541726     -0.40931250
      -0.40782758     -0.40568107     -0.40315187     -0.40177787
      -0.40088752     -0.40049695     -0.39972101     -0.39890522
      -0.39816168     -0.39740235     -0.39701665     -0.39553752
      -0.39408980     -0.39345541     -0.39260123     -0.39251010
      -0.39216923     -0.39142770     -0.39039012     -0.38968128
      -0.38886972     -0.38876422     -0.38810968     -0.38772530
      -0.38735880     -0.38644732     -0.38618298     -0.38564311
      -0.38496982     -0.38469170     -0.38396064     -0.38363730
      -0.38310493     -0.38279911     -0.38210875     -0.38017975
      -0.37952250     -0.37828485     -0.37827358     -0.37780543
      -0.37668528     -0.37555826     -0.37542437     -0.37473169
      -0.37413605     -0.37337705     -0.37230381     -0.37163980
      -0.37135954     -0.37013973     -0.36973535     -0.36848201
      -0.36784135     -0.36660129     -0.36566107     -0.36541248
      -0.36262323     -0.35972147     -0.35883755     -0.35745609
      -0.35671269     -0.35620660     -0.34833690     -0.34725020
 Fermi Energy [eV] :   -9.449158
  
  Lowest Eigenvalues of the unoccupied subspace spin            1
 -----------------------------------------------------
  Reached convergence in          181  iterations 
       0.18895666      0.23857423      0.24679955      0.25006088
  
 HOMO - LUMO gap [eV] :   14.590931

 ENERGY| Total FORCE_EVAL ( QS ) energy (a.u.):            -1101.360468391086670


 -------------------------------------------------------------------------------
 -                                                                             -
 -                                DBCSR STATISTICS                             -
 -                                                                             -
 -------------------------------------------------------------------------------
 COUNTER                                      CPU                  ACC      ACC%
 number of processed stacks                321504                    0       0.0
 matmuls inhomo. stacks                         0                    0       0.0
 matmuls total                           21899648                    0       0.0
 flops   4 x    4 x    4                   113664                    0       0.0
 flops  36 x    4 x   36                   943488                    0       0.0
 flops  36 x    4 x   32                  5870592                    0       0.0
 flops  32 x    4 x   36                  5870592                    0       0.0
 flops   4 x    4 x  184                 16627712                    0       0.0
 flops  36 x   36 x  184                 19077120                    0       0.0
 flops 184 x    4 x    4                 25624576                    0       0.0
 flops  36 x    4 x  184                 38578176                    0       0.0
 flops 184 x    4 x   36                 38578176                    0       0.0
 flops  32 x    4 x   32                 39149568                    0       0.0
 flops   5 x   32 x   32                 94371840                    0       0.0
 flops  32 x   36 x  184                118702080                    0       0.0
 flops  36 x   32 x  184                118702080                    0       0.0
 flops  13 x   32 x   32                122683392                    0       0.0
 flops  32 x    4 x  184                255115264                    0       0.0
 flops 184 x    4 x   32                255115264                    0       0.0
 flops 184 x   36 x  184                780042240                    0       0.0
 flops   5 x    4 x    5               1095315200                    0       0.0
 flops   5 x    5 x   32               1162380800                    0       0.0
 flops  13 x    4 x    5               1401520640                    0       0.0
 flops   5 x    4 x   13               1401520640                    0       0.0
 flops  13 x    5 x   32               1473971200                    0       0.0
 flops   5 x   13 x   32               1479828480                    0       0.0
 flops 184 x    4 x  184               1577418752                    0       0.0
 flops  13 x    4 x   13               1782173952                    0       0.0
 flops  13 x   13 x   32               1915124224                    0       0.0
 flops  32 x   32 x   32               3254779904                    0       0.0
 flops   5 x   32 x    5               5714688000                    0       0.0
 flops  13 x   32 x    5               7312281600                    0       0.0
 flops   5 x   32 x   13               7312281600                    0       0.0
 flops 184 x   32 x   32               9261023232                    0       0.0
 flops  13 x   32 x   13               9298298880                    0       0.0
 flops  32 x   32 x  184               9336389632                    0       0.0
 flops 184 x   32 x  184              17056923648                    0       0.0
 flops total                          83771086208                    0       0.0
 marketing flops                      95819620352
 -------------------------------------------------------------------------------

 -------------------------------------------------------------------------------
 ----                             MULTIGRID INFO                            ----
 -------------------------------------------------------------------------------
 count for grid        1:          38071          cutoff [a.u.]          200.00
 count for grid        2:          57438          cutoff [a.u.]           66.67
 count for grid        3:          57763          cutoff [a.u.]           22.22
 count for grid        4:          11599          cutoff [a.u.]            7.41
 total gridlevel count  :         164871

 -------------------------------------------------------------------------------
 -                                                                             -
 -                         MESSAGE PASSING PERFORMANCE                         -
 -                                                                             -
 -------------------------------------------------------------------------------

 ROUTINE             CALLS  TOT TIME [s]  AVE VOLUME [Bytes]  PERFORMANCE [MB/s]
 MP_Group                5         0.000
 MP_Bcast             4002         0.037              66851.             7234.66
 MP_Allreduce         8835         1.915                155.                0.71
 MP_Gather               4         0.001               1792.                8.45
 MP_Sync               200        25.775
 MP_Alltoall          9520         3.378
 MP_ISendRecv         4032         0.008              49775.            25622.34
 MP_Wait            229042         2.356
 MP_comm_split         143         0.020
 MP_ISend           101650         4.608              29994.              661.64
 MP_IRecv           101650         0.120              29819.            25230.58
 MP_Recv                 7         0.000             376832.             5835.36
 MP_Memory           65508        14.228
 -------------------------------------------------------------------------------


 -------------------------------------------------------------------------------
 -                                                                             -
 -                           R E F E R E N C E S                               -
 -                                                                             -
 -------------------------------------------------------------------------------
 
 CP2K version 2.6, the CP2K developers group (2014).
 CP2K is freely available from http://www.cp2k.org/ .

 Borstnik, U; VandeVondele, J; Weber, V; Hutter, J. 
 PARALLEL COMPUTING, 40 (5-6), 47-58 (2014). 
 Sparse matrix multiplication: The distributed block-compressed sparse
 row library.
 http://dx.doi.org/10.1016/j.parco.2014.03.012


 Hutter, J; Iannuzzi, M; Schiffmann, F; VandeVondele, J. 
 WILEY INTERDISCIPLINARY REVIEWS-COMPUTATIONAL MOLECULAR SCIENCE, 4 (1), 15-25 (2014). 
 CP2K: atomistic simulations of condensed matter systems.
 http://dx.doi.org/10.1002/wcms.1159


 Grimme, S; Ehrlich, S; Goerigk, L. 
 JOURNAL OF COMPUTATIONAL CHEMISTRY, 32, 1456 (2011). 
 Effect of the damping function in dispersion corrected density functional theory.
 http://dx.doi.org/10.1002/jcc.21759


 Grimme, S; Antony, J; Ehrlich, S; Krieg, H. 
 JOURNAL OF CHEMICAL PHYSICS, 132 (15), 154104 (2010). 
 A consistent and accurate ab initio parametrization of density
 functional dispersion correction (DFT-D) for the 94 elements H-Pu.
 http://dx.doi.org/10.1063/1.3382344


 Guidon, M; Hutter, J; VandeVondele, J. 
 JOURNAL OF CHEMICAL THEORY AND COMPUTATION, 5 (11), 3010-3021 (2009). 
 Robust Periodic Hartree-Fock Exchange for Large-Scale Simulations Using
 Gaussian Basis Sets.
 http://dx.doi.org/10.1021/ct900494g


 Guidon, M; Schiffmann, F; Hutter, J; VandeVondele, J. 
 JOURNAL OF CHEMICAL PHYSICS, 128 (21), 214104 (2008). 
 Ab initio molecular dynamics using hybrid density functionals.
 http://dx.doi.org/10.1063/1.2931945


 Krack, M. 
 THEORETICAL CHEMISTRY ACCOUNTS, 114 (1-3), 145-152 (2005). 
 Pseudopotentials for H to Kr optimized for gradient-corrected
 exchange-correlation functionals.
 http://dx.doi.org/10.1007/s00214-005-0655-y


 VandeVondele, J; Krack, M; Mohamed, F; Parrinello, M; Chassaing, T;
 Hutter, J. COMPUTER PHYSICS COMMUNICATIONS, 167 (2), 103-128 (2005). 
 QUICKSTEP: Fast and accurate density functional calculations using a
 mixed Gaussian and plane waves approach.
 http://dx.doi.org/10.1016/j.cpc.2004.12.014


 Frigo, M; Johnson, SG. 
 PROCEEDINGS OF THE IEEE, 93 (2), 216-231 (2005). 
 The design and implementation of FFTW3.
 http://dx.doi.org/10.1109/JPROC.2004.840301


 VandeVondele, J; Hutter, J. 
 JOURNAL OF CHEMICAL PHYSICS, 118 (10), 4365-4369 (2003). 
 An efficient orbital transformation method for electronic structure
 calculations.
 http://dx.doi.org/10.1063/1.1543154


 Hartwigsen, C; Goedecker, S; Hutter, J. 
 PHYSICAL REVIEW B, 58 (7), 3641-3662 (1998). 
 Relativistic separable dual-space Gaussian pseudopotentials from H to Rn.
 http://dx.doi.org/10.1103/PhysRevB.58.3641


 Lippert, G; Hutter, J; Parrinello, M. 
 MOLECULAR PHYSICS, 92 (3), 477-487 (1997). 
 A hybrid Gaussian and plane wave density functional scheme.
 http://dx.doi.org/10.1080/002689797170220


 Perdew, JP; Burke, K; Ernzerhof, M. 
 PHYSICAL REVIEW LETTERS, 77 (18), 3865-3868 (1996). 
 Generalized gradient approximation made simple.
 http://dx.doi.org/10.1103/PhysRevLett.77.3865


 Goedecker, S; Teter, M; Hutter, J. 
 PHYSICAL REVIEW B, 54 (3), 1703-1710 (1996). 
 Separable dual-space Gaussian pseudopotentials.
 http://dx.doi.org/10.1103/PhysRevB.54.1703


 -------------------------------------------------------------------------------
 -                                                                             -
 -                                T I M I N G                                  -
 -                                                                             -
 -------------------------------------------------------------------------------
 SUBROUTINE                       CALLS  ASD         SELF TIME        TOTAL TIME
                                MAXIMUM       AVERAGE  MAXIMUM  AVERAGE  MAXIMUM
 CP2K                                 1  1.0    0.028    0.032  102.213  102.217
 qs_energies_scf                      1  2.0    0.000    0.000  100.779  100.779
 scf_env_do_scf                       1  3.0    0.000    0.000   71.562   71.562
 qs_ks_update_qs_env                 11  5.0    0.000    0.000   68.435   68.438
 rebuild_ks_matrix                   10  6.0    0.000    0.000   68.432   68.435
 qs_ks_build_kohn_sham_matrix        10  7.0    0.002    0.003   68.432   68.435
 hfx_ks_matrix                       10  8.0    0.000    0.000   66.118   66.129
 integrate_four_center               10  9.0   21.481   23.335   66.113   66.124
 scf_env_do_scf_inner_loop           10  4.0    0.000    0.001   52.014   52.052
 integrate_four_center_getP          10 10.0   24.149   24.200   24.149   24.200
 dbcsr_mm_cannon_multiply          2798  8.0    1.304    1.623   22.476   22.769
 scf_post_calculation_gpw             1  3.0    0.000    0.000   21.703   21.703
 make_lumo                            1  4.0    0.000    0.000   21.580   21.580
 ot_eigensolver                       1  5.0    0.008    0.008   21.566   21.566
 integrate_four_center_main          10 10.0    0.005    0.006   18.719   21.067
 integrate_four_center_bin          670 11.0   18.714   21.063   18.714   21.063
 init_scf_loop                        1  4.0    0.000    0.000   19.509   19.509
 ot_mini                            191  6.1    0.002    0.003   11.375   11.385
 cannon_multiply_low               2798  9.0    1.017    1.253   10.099   10.795
 qs_ot_get_derivative               101  7.1    0.003    0.003   10.175   10.195
 dbcsr_make_images                 5596  9.0    0.014    0.015    7.820    8.168
 make_images                       5596 10.0    0.200    0.243    7.806    8.155
 qs_energies_init_hamiltonians        1  3.0    0.000    0.000    7.324    7.324
 qs_env_update_s_mstruct              1  4.0    0.000    0.000    7.275    7.276
 calculate_rho_core                   1  5.0    3.551    5.400    7.253    7.253
 dbcsr_data_new                   95745 10.9    0.204    0.243    5.665    6.346
 internal_data_allocate           57978 12.0    5.464    6.116    5.464    6.116
 rs_pw_transfer                      87  9.3    0.002    0.002    2.517    6.077
 rs_pw_transfer_RS2PW_200            13  8.8    2.062    5.625    2.062    5.625
 qs_ot_get_derivative_diag           67  8.0    0.005    0.006    5.179    5.191
 qs_ot_get_p                        197  6.1    0.002    0.003    4.840    5.007
 dbcsr_create_new                 41066  9.8    0.193    0.218    4.251    4.487
 dbcsr_data_release              170929 11.2    0.180    0.214    3.756    3.989
 internal_data_deallocate         57978 12.2    3.579    3.807    3.579    3.807
 fft_wrap_pw1pw2                    176  9.6    0.003    0.004    3.353    3.368
 setup_buffer_matrices             5596 10.0    1.961    2.094    3.002    3.288
 fft_wrap_pw1pw2_200                113 10.8    0.078    0.098    3.223    3.234
 fft3d_ps                           176 11.6    0.372    0.481    3.181    3.205
 buffer_matrices_ensure_size       5596 10.0    2.332    3.086    2.332    3.086
 qs_ot_get_orbitals                 196  6.1    0.003    0.003    2.994    3.009
 dbcsr_destroy                    34136  9.2    0.098    0.110    2.706    2.880
 qs_ot_get_derivative_taylor         34  8.3    0.003    0.003    2.439    2.445
 qs_ot_p2m_diag                     141  7.0    0.004    0.005    2.401    2.425
 yz_to_x                             63 12.4    2.273    2.342    2.273    2.342
 cannon_multiply_low_metrocomm1   22384 10.0    1.119    2.236    1.119    2.236
 make_images_sizes                 5596 11.0    1.728    2.057    1.728    2.057
 -------------------------------------------------------------------------------

  **** **** ******  **  PROGRAM ENDED AT                 2015-03-10 12:11:19.775
 ***** ** ***  *** **   PROGRAM RAN ON                                      n247
 **    ****   ******    PROGRAM RAN BY                                     bja39
 ***** **    ** ** **   PROGRAM PROCESS ID                                 16262
  **** **  *******  **  PROGRAM STOPPED IN /home/dlambrecht/bja39/cp2k/hfx/hfx90
