 DBCSR| Multiplication driver                                                SMM
 DBCSR| Multrec recursion limit                                              512
 DBCSR| Multiplication stack size                                           1000
 DBCSR| Multiplication size stacks                                             3
 DBCSR| Use subcommunicators                                                   T
 DBCSR| Use MPI combined types                                                 F
 DBCSR| Use MPI memory allocation                                              T
 DBCSR| Use Communication thread                                               T
 DBCSR| Communication thread load                                             87


  **** **** ******  **  PROGRAM STARTED AT               2015-03-10 12:08:29.450
 ***** ** ***  *** **   PROGRAM STARTED ON                                  n272
 **    ****   ******    PROGRAM STARTED BY                                 bja39
 ***** **    ** ** **   PROGRAM PROCESS ID                                 15396
  **** **  *******  **  PROGRAM STARTED IN /home/dlambrecht/bja39/cp2k/hfx/hfx80

 CP2K| version string:                                          CP2K version 2.6
 CP2K| source code revision number:                                  git:9520686
 CP2K| is freely available from                             http://www.cp2k.org/
 CP2K| Program compiled at                          Fri Feb 27 09:44:54 EST 2015
 CP2K| Program compiled on                            login0a.frank.sam.pitt.edu
 CP2K| Program compiled for                                                Frank
 CP2K| Input file name                                                   hfx.inp
 
 GLOBAL| Force Environment number                                              1
 GLOBAL| Basis set file name                                           HFX_BASIS
 GLOBAL| Geminal file name                                         BASIS_GEMINAL
 GLOBAL| Potential file name                                      GTH_POTENTIALS
 GLOBAL| MM Potential file name                                     MM_POTENTIAL
 GLOBAL| Coordinate file name                                          water.xyz
 GLOBAL| Method name                                                        CP2K
 GLOBAL| Project name                                                      WATER
 GLOBAL| Preferred FFT library                                             FFTW3
 GLOBAL| Preferred diagonalization lib.                                       SL
 GLOBAL| Run type                                                         ENERGY
 GLOBAL| All-to-all communication in single precision                          F
 GLOBAL| FFTs using library dependent lengths                                  F
 GLOBAL| Global print level                                               MEDIUM
 GLOBAL| Total number of message passing processes                            64
 GLOBAL| Number of threads for this process                                    1
 GLOBAL| This output is from process                                           0

 MEMORY| system memory details [Kb]
 MEMORY|                        rank 0           min           max       average
 MEMORY| MemTotal             32989296      32989296      32989296      32989296
 MEMORY| MemFree              29957732      10039324      30864984      20231850
 MEMORY| Buffers                  1004          1004          1372          1186
 MEMORY| Cached                1552632        668064      20515092      10807980
 MEMORY| Slab                   135900        131548       1080840        603148
 MEMORY| SReclaimable            33284         29124        762124        393898
 MEMORY| MemLikelyFree        31544652      31306848      31563200      31434914


 *** Fundamental physical constants (SI units) ***

 *** Literature: B. J. Mohr and B. N. Taylor,
 ***             CODATA recommended values of the fundamental physical
 ***             constants: 2006, Web Version 5.1
 ***             http://physics.nist.gov/constants

 Speed of light in vacuum [m/s]                             2.99792458000000E+08
 Magnetic constant or permeability of vacuum [N/A**2]       1.25663706143592E-06
 Electric constant or permittivity of vacuum [F/m]          8.85418781762039E-12
 Planck constant (h) [J*s]                                  6.62606896000000E-34
 Planck constant (h-bar) [J*s]                              1.05457162825177E-34
 Elementary charge [C]                                      1.60217648700000E-19
 Electron mass [kg]                                         9.10938215000000E-31
 Electron g factor [ ]                                     -2.00231930436220E+00
 Proton mass [kg]                                           1.67262163700000E-27
 Fine-structure constant                                    7.29735253760000E-03
 Rydberg constant [1/m]                                     1.09737315685270E+07
 Avogadro constant [1/mol]                                  6.02214179000000E+23
 Boltzmann constant [J/K]                                   1.38065040000000E-23
 Atomic mass unit [kg]                                      1.66053878200000E-27
 Bohr radius [m]                                            5.29177208590000E-11

 *** Conversion factors ***

 [u] -> [a.u.]                                              1.82288848426455E+03
 [Angstrom] -> [Bohr] = [a.u.]                              1.88972613288564E+00
 [a.u.] = [Bohr] -> [Angstrom]                              5.29177208590000E-01
 [a.u.] -> [s]                                              2.41888432650478E-17
 [a.u.] -> [fs]                                             2.41888432650478E-02
 [a.u.] -> [J]                                              4.35974393937059E-18
 [a.u.] -> [N]                                              8.23872205491840E-08
 [a.u.] -> [K]                                              3.15774647902944E+05
 [a.u.] -> [kJ/mol]                                         2.62549961709828E+03
 [a.u.] -> [kcal/mol]                                       6.27509468713739E+02
 [a.u.] -> [Pa]                                             2.94210107994716E+13
 [a.u.] -> [bar]                                            2.94210107994716E+08
 [a.u.] -> [atm]                                            2.90362800883016E+08
 [a.u.] -> [eV]                                             2.72113838565563E+01
 [a.u.] -> [Hz]                                             6.57968392072181E+15
 [a.u.] -> [1/cm] (wave numbers)                            2.19474631370540E+05
 [a.u./Bohr**2] -> [1/cm]                                   5.14048714338585E+03
 

 CELL_TOP| Volume [angstrom^3]:                                         1915.864
 CELL_TOP| Vector a [angstrom    12.420     0.000     0.000    |a| =      12.420
 CELL_TOP| Vector b [angstrom     0.000    12.420     0.000    |b| =      12.420
 CELL_TOP| Vector c [angstrom     0.000     0.000    12.420    |c| =      12.420
 CELL_TOP| Angle (b,c), alpha [degree]:                                   90.000
 CELL_TOP| Angle (a,c), beta  [degree]:                                   90.000
 CELL_TOP| Angle (a,b), gamma [degree]:                                   90.000
 CELL_TOP| Numerically orthorhombic:                                         YES
 
 GENERATE|  Preliminary Number of Bonds generated:                             0
 GENERATE|  Achieved consistency in connectivity generation.

 CELL| Volume [angstrom^3]:                                             1915.864
 CELL| Vector a [angstrom]:      12.420     0.000     0.000    |a| =      12.420
 CELL| Vector b [angstrom]:       0.000    12.420     0.000    |b| =      12.420
 CELL| Vector c [angstrom]:       0.000     0.000    12.420    |c| =      12.420
 CELL| Angle (b,c), alpha [degree]:                                       90.000
 CELL| Angle (a,c), beta  [degree]:                                       90.000
 CELL| Angle (a,b), gamma [degree]:                                       90.000
 CELL| Numerically orthorhombic:                                             YES

 CELL_REF| Volume [angstrom^3]:                                         1915.864
 CELL_REF| Vector a [angstrom    12.420     0.000     0.000    |a| =      12.420
 CELL_REF| Vector b [angstrom     0.000    12.420     0.000    |b| =      12.420
 CELL_REF| Vector c [angstrom     0.000     0.000    12.420    |c| =      12.420
 CELL_REF| Angle (b,c), alpha [degree]:                                   90.000
 CELL_REF| Angle (a,c), beta  [degree]:                                   90.000
 CELL_REF| Angle (a,b), gamma [degree]:                                   90.000
 CELL_REF| Numerically orthorhombic:                                         YES

 *******************************************************************************
 *******************************************************************************
 **                                                                           **
 **     #####                         ##              ##                      **
 **    ##   ##            ##          ##              ##                      **
 **   ##     ##                       ##            ######                    **
 **   ##     ##  ##   ##  ##   #####  ##  ##   ####   ##    #####    #####    **
 **   ##     ##  ##   ##  ##  ##      ## ##   ##      ##   ##   ##  ##   ##   **
 **   ##  ## ##  ##   ##  ##  ##      ####     ###    ##   ######   ######    **
 **    ##  ###   ##   ##  ##  ##      ## ##      ##   ##   ##       ##        **
 **     #######   #####   ##   #####  ##  ##  ####    ##    #####   ##        **
 **           ##                                                    ##        **
 **                                                                           **
 **                                                ... make the atoms dance   **
 **                                                                           **
 **            Copyright (C) by CP2K Developers Group (2000 - 2014)           **
 **                                                                           **
 *******************************************************************************

 DFT| Spin restricted Kohn-Sham (RKS) calculation                            RKS
 DFT| Multiplicity                                                             1
 DFT| Number of spin states                                                    1
 DFT| Charge                                                                   0
 DFT| Self-interaction correction (SIC)                                       NO
 DFT| Cutoffs: density                                              1.000000E-10
 DFT|          gradient                                             1.000000E-10
 DFT|          tau                                                  1.000000E-10
 DFT|          cutoff_smoothing_range                               0.000000E+00
 DFT| XC density smoothing                                                  NONE
 DFT| XC derivatives                                                          PW
 FUNCTIONAL| ROUTINE=NEW
 FUNCTIONAL| PBE:
 FUNCTIONAL| J.P.Perdew, K.Burke, M.Ernzerhof, Phys. Rev. Letter, vol. 77, n 18,
 FUNCTIONAL|  pp. 3865-3868, (1996)sx=0.200sc=1.000{spin unpolarized}
 vdW POTENTIAL|                                                   Pair Potential
 vdW POTENTIAL|          DFT-D3 (Version 3.1)
 vdW POTENTIAL|          Potential Form: S. Grimme et al, JCP 132: 154104 (2010)
 vdW POTENTIAL|          Zero Damping
 vdW POTENTIAL|          Cutoff Radius [Bohr]:                             30.24
 vdW POTENTIAL|          s6 Scaling Factor:                               1.0000
 vdW POTENTIAL|          sr6 Scaling Factor:                              1.2870
 vdW POTENTIAL|          s8 Scaling Factor:                               0.9280
 vdW POTENTIAL|          Cutoff for CN calculation:                   0.1000E-05

 QS| Method:                                                                 GPW
 QS| Density plane wave grid type                        NON-SPHERICAL FULLSPACE
 QS| Number of grid levels:                                                    4
 QS| Density cutoff [a.u.]:                                                200.0
 QS| Multi grid cutoff [a.u.]: 1) grid level                               200.0
 QS|                           2) grid level                                66.7
 QS|                           3) grid level                                22.2
 QS|                           4) grid level                                 7.4
 QS| Grid level progression factor:                                          3.0
 QS| Relative density cutoff [a.u.]:                                        20.0
 QS| Consistent realspace mapping and integration 
 QS| Interaction thresholds: eps_pgf_orb:                                1.0E-05
 QS|                         eps_filter_matrix:                          0.0E+00
 QS|                         eps_core_charge:                            1.0E-12
 QS|                         eps_rho_gspace:                             1.0E-10
 QS|                         eps_rho_rspace:                             1.0E-10
 QS|                         eps_gvg_rspace:                             1.0E-05
 QS|                         eps_ppl:                                    1.0E-02
 QS|                         eps_ppnl:                                   1.0E-07


 ATOMIC KIND INFORMATION

  1. Atomic kind: O                                     Number of atoms:      64

     Orbital Basis Set                                                  DZVP-GTH

       Number of orbital shell sets:                                           3
       Number of orbital shells:                                               5
       Number of primitive Cartesian functions:                                5
       Number of Cartesian basis functions:                                   14
       Number of spherical basis functions:                                   13
       Norm type:                                                              2

       Normalised Cartesian orbitals:

                        Set   Shell   Orbital            Exponent    Coefficient

                          1       1    2s                8.304386       0.778600
                                                         2.457948      -0.081348
                                                         0.759737      -0.597925

                          1       2    3px               8.304386      -2.634104
                                                         2.457948      -1.739269
                                                         0.759737      -0.632383
                          1       2    3py               8.304386      -2.634104
                                                         2.457948      -1.739269
                                                         0.759737      -0.632383
                          1       2    3pz               8.304386      -2.634104
                                                         2.457948      -1.739269
                                                         0.759737      -0.632383

                          2       1    2s                0.213639       0.223960

                          2       2    3px               0.213639       0.207033
                          2       2    3py               0.213639       0.207033
                          2       2    3pz               0.213639       0.207033

                          3       1    3dx2              1.185000       2.215218
                          3       1    3dxy              1.185000       3.836871
                          3       1    3dxz              1.185000       3.836871
                          3       1    3dy2              1.185000       2.215218
                          3       1    3dyz              1.185000       3.836871
                          3       1    3dz2              1.185000       2.215218

     Potential information for                                        GTH-PBE-q6

       Description:                       Goedecker-Teter-Hutter pseudopotential
                                           Goedecker et al., PRB 54, 1703 (1996)
                                          Hartwigsen et al., PRB 58, 3641 (1998)
                                                      Krack, TCA 114, 145 (2005)

       Gaussian exponent of the core charge distribution:               8.360253
       Electronic configuration (s p d ...):                               2   4

       Parameters of the local part of the GTH pseudopotential:

                          rloc        C1          C2          C3          C4
                        0.244554  -16.667215    2.487311

       Parameters of the non-local part of the GTH pseudopotential:

                   l      r(l)      h(i,j,l)

                   0    0.220956   18.337458
                   1    0.211332

  2. Atomic kind: H                                     Number of atoms:     128

     Orbital Basis Set                                                  DZVP-GTH

       Number of orbital shell sets:                                           3
       Number of orbital shells:                                               3
       Number of primitive Cartesian functions:                                5
       Number of Cartesian basis functions:                                    5
       Number of spherical basis functions:                                    5
       Norm type:                                                              2

       Normalised Cartesian orbitals:

                        Set   Shell   Orbital            Exponent    Coefficient

                          1       1    1s                8.374435      -0.191705
                                                         1.805868      -0.285532
                                                         0.485253      -0.319237

                          2       1    1s                0.165824       0.185202

                          3       1    2px               0.727000       0.956881
                          3       1    2py               0.727000       0.956881
                          3       1    2pz               0.727000       0.956881

     Potential information for                                        GTH-PBE-q1

       Description:                       Goedecker-Teter-Hutter pseudopotential
                                           Goedecker et al., PRB 54, 1703 (1996)
                                          Hartwigsen et al., PRB 58, 3641 (1998)
                                                      Krack, TCA 114, 145 (2005)

       Gaussian exponent of the core charge distribution:              12.500000
       Electronic configuration (s p d ...):                                   1

       Parameters of the local part of the GTH pseudopotential:

                          rloc        C1          C2          C3          C4
                        0.200000   -4.178900    0.724463


 MOLECULE KIND INFORMATION


 All atoms are their own molecule, skipping detailed information


 TOTAL NUMBERS AND MAXIMUM NUMBERS

  Total number of            - Atomic kinds:                                   2
                             - Atoms:                                        192
                             - Shell sets:                                   576
                             - Shells:                                       704
                             - Primitive Cartesian functions:                960
                             - Cartesian basis functions:                   1536
                             - Spherical basis functions:                   1472

  Maximum angular momentum of- Orbital basis functions:                        2
                             - Local part of the GTH pseudopotential:          2
                             - Non-local part of the GTH pseudopotential:      0


 MODULE QUICKSTEP:  ATOMIC COORDINATES IN angstrom

  Atom  Kind  Element       X           Y           Z          Z(eff)       Mass

       1     1 O    8    3.858587   -4.753318    5.509197      6.00      15.9994
       2     2 H    1    4.210995   -5.556871    5.999459      1.00       1.0079
       3     2 H    1    3.094708   -4.317266    5.913595      1.00       1.0079
       4     1 O    8   -3.546076    1.745624    4.288021      6.00      15.9994
       5     2 H    1   -3.357258    0.836994    4.152946      1.00       1.0079
       6     2 H    1   -3.608914    1.943698    5.269839      1.00       1.0079
       7     1 O    8    4.569136    2.934327   -7.099972      6.00      15.9994
       8     2 H    1    3.678596    3.229107   -6.804983      1.00       1.0079
       9     2 H    1    4.495367    2.784591   -8.045803      1.00       1.0079
      10     1 O    8   -2.573180   -0.106310   -3.414714      6.00      15.9994
      11     2 H    1   -2.038669    0.415523   -2.828965      1.00       1.0079
      12     2 H    1   -1.889161   -0.614820   -3.928063      1.00       1.0079
      13     1 O    8   -3.762503   -7.710594    5.627998      6.00      15.9994
      14     2 H    1   -4.634354   -7.419980    5.987479      1.00       1.0079
      15     2 H    1   -3.852063   -7.634849    4.660781      1.00       1.0079
      16     1 O    8   -6.713126   -0.075920    2.317684      6.00      15.9994
      17     2 H    1   -6.041585   -0.456040    3.007998      1.00       1.0079
      18     2 H    1   -6.258264    0.734307    1.958295      1.00       1.0079
      19     1 O    8    4.010954   -5.581769   -0.412691      6.00      15.9994
      20     2 H    1    3.332131   -5.616691    0.307694      1.00       1.0079
      21     2 H    1    3.905154   -4.753344   -0.836952      1.00       1.0079
      22     1 O    8   -2.669263   -3.081051   -1.225935      6.00      15.9994
      23     2 H    1   -3.248632   -2.449171   -1.738693      1.00       1.0079
      24     2 H    1   -2.191896   -2.598852   -0.576307      1.00       1.0079
      25     1 O    8    5.457624   -3.168804    3.100260      6.00      15.9994
      26     2 H    1    4.685499   -3.245800    3.622418      1.00       1.0079
      27     2 H    1    5.257937   -3.050750    2.131140      1.00       1.0079
      28     1 O    8    2.007879    3.802589   -6.644120      6.00      15.9994
      29     2 H    1    1.380904    3.070273   -6.803869      1.00       1.0079
      30     2 H    1    1.836607    4.066629   -5.709998      1.00       1.0079
      31     1 O    8    4.060883   -3.892921   -3.059677      6.00      15.9994
      32     2 H    1    3.233271   -3.720667   -3.695376      1.00       1.0079
      33     2 H    1    4.336690   -2.982510   -2.984822      1.00       1.0079
      34     1 O    8    1.977359   -1.844229    1.022567      6.00      15.9994
      35     2 H    1    1.565064   -2.471360    1.649594      1.00       1.0079
      36     2 H    1    1.619481   -1.913312    0.065695      1.00       1.0079
      37     1 O    8    0.733845   -5.743288   -5.010069      6.00      15.9994
      38     2 H    1    1.479577   -6.329923   -4.818933      1.00       1.0079
      39     2 H    1    0.449115   -5.709569   -5.947356      1.00       1.0079
      40     1 O    8   -7.516646   -8.678106   -3.237157      6.00      15.9994
      41     2 H    1   -7.873766   -9.602722   -3.081415      1.00       1.0079
      42     2 H    1   -7.132394   -8.578896   -2.346766      1.00       1.0079
      43     1 O    8    3.008996   -1.620693    5.170452      6.00      15.9994
      44     2 H    1    3.854786   -1.802286    5.686635      1.00       1.0079
      45     2 H    1    3.170083   -0.818538    4.610243      1.00       1.0079
      46     1 O    8   -0.094349    1.863471   -6.686135      6.00      15.9994
      47     2 H    1    0.238983    1.055233   -6.317038      1.00       1.0079
      48     2 H    1   -0.053460    1.737047   -7.652783      1.00       1.0079
      49     1 O    8    1.380300   -3.081547    3.659847      6.00      15.9994
      50     2 H    1    2.005275   -2.679362    4.316923      1.00       1.0079
      51     2 H    1    1.097394   -3.966638    3.981340      1.00       1.0079
      52     1 O    8   -2.327913    2.806079    2.234742      6.00      15.9994
      53     2 H    1   -1.623045    2.131523    2.186616      1.00       1.0079
      54     2 H    1   -2.760923    2.581957    3.088951      1.00       1.0079
      55     1 O    8    0.874513   -0.661119   -5.600405      6.00      15.9994
      56     2 H    1    1.720402   -0.818966   -6.109861      1.00       1.0079
      57     2 H    1    1.196412   -0.240506   -4.754906      1.00       1.0079
      58     1 O    8   -1.186646   -0.716403    0.243785      6.00      15.9994
      59     2 H    1   -1.134001    0.232571   -0.072616      1.00       1.0079
      60     2 H    1   -0.933544   -0.785478    1.201134      1.00       1.0079
      61     1 O    8   -3.886194   -9.012929   -3.131857      6.00      15.9994
      62     2 H    1   -4.498349   -8.280126   -3.216022      1.00       1.0079
      63     2 H    1   -2.918386   -8.730140   -3.122451      1.00       1.0079
      64     1 O    8    4.978441    4.557411    2.160598      6.00      15.9994
      65     2 H    1    4.574251    4.069025    1.437504      1.00       1.0079
      66     2 H    1    4.210678    4.907944    2.673609      1.00       1.0079
      67     1 O    8    4.207481    1.029475   -3.213494      6.00      15.9994
      68     2 H    1    4.625087    0.852431   -4.064867      1.00       1.0079
      69     2 H    1    4.422152    0.192039   -2.736436      1.00       1.0079
      70     1 O    8   -5.210635   -6.346370   -2.680646      6.00      15.9994
      71     2 H    1   -5.380163   -6.086183   -1.773761      1.00       1.0079
      72     2 H    1   -5.998555   -6.089431   -3.152188      1.00       1.0079
      73     1 O    8    4.827201   -2.149309    0.695756      6.00      15.9994
      74     2 H    1    5.169811   -1.384311    1.168073      1.00       1.0079
      75     2 H    1    3.873140   -2.015277    0.790152      1.00       1.0079
      76     1 O    8    2.108497    0.940656    1.696470      6.00      15.9994
      77     2 H    1    2.763570    1.510652    1.258248      1.00       1.0079
      78     2 H    1    2.313842    0.079150    1.294322      1.00       1.0079
      79     1 O    8   -5.757905   -5.093599   -0.361373      6.00      15.9994
      80     2 H    1   -6.692202   -5.443891   -0.243446      1.00       1.0079
      81     2 H    1   -5.933954   -4.185226   -0.689323      1.00       1.0079
      82     1 O    8   -4.850118    4.634751    2.632366      6.00      15.9994
      83     2 H    1   -5.818692    4.729150    2.364808      1.00       1.0079
      84     2 H    1   -4.768696    3.668506    2.248911      1.00       1.0079
      85     1 O    8    5.512389    0.852383   -5.592791      6.00      15.9994
      86     2 H    1    6.400927    1.196167   -5.345498      1.00       1.0079
      87     2 H    1    5.032627    1.457110   -6.282087      1.00       1.0079
      88     1 O    8    0.736518   -1.917695   -1.272458      6.00      15.9994
      89     2 H    1    0.436663   -2.668596   -1.845250      1.00       1.0079
      90     2 H    1   -0.028072   -1.634696   -0.732364      1.00       1.0079
      91     1 O    8    3.900594    2.622197    0.082498      6.00      15.9994
      92     2 H    1    4.660363    2.413641   -0.488502      1.00       1.0079
      93     2 H    1    3.361931    3.246591   -0.459951      1.00       1.0079
      94     1 O    8   -1.099162   -1.369341    2.949888      6.00      15.9994
      95     2 H    1   -0.335406   -2.036901    3.107502      1.00       1.0079
      96     2 H    1   -1.847346   -1.991636    3.203214      1.00       1.0079
      97     1 O    8    2.071845   -5.650168    1.362908      6.00      15.9994
      98     2 H    1    1.204362   -6.136982    1.256069      1.00       1.0079
      99     2 H    1    2.450750   -5.885909    2.255821      1.00       1.0079
     100     1 O    8   -0.628031   -3.827349   -2.846086      6.00      15.9994
     101     2 H    1   -1.558364   -3.776964   -2.581114      1.00       1.0079
     102     2 H    1   -0.511229   -4.587952   -3.398223      1.00       1.0079
     103     1 O    8   -5.291843    2.062167    1.435301      6.00      15.9994
     104     2 H    1   -4.454945    1.877605    1.901455      1.00       1.0079
     105     2 H    1   -5.133594    1.919821    0.419723      1.00       1.0079
     106     1 O    8    1.959972   -3.424563   -5.267360      6.00      15.9994
     107     2 H    1    1.322556   -4.212309   -5.038883      1.00       1.0079
     108     2 H    1    1.299929   -2.771147   -5.498678      1.00       1.0079
     109     1 O    8   -1.193321    3.936851   -3.373747      6.00      15.9994
     110     2 H    1   -1.200301    3.980365   -4.358294      1.00       1.0079
     111     2 H    1   -0.740251    4.650096   -2.940559      1.00       1.0079
     112     1 O    8   -5.424398   -5.002981    4.278463      6.00      15.9994
     113     2 H    1   -6.116403   -4.512700    3.781732      1.00       1.0079
     114     2 H    1   -4.740320   -5.349861    3.692094      1.00       1.0079
     115     1 O    8    2.973298    5.793755    3.604183      6.00      15.9994
     116     2 H    1    3.417671    6.472671    4.169501      1.00       1.0079
     117     2 H    1    2.448520    5.204109    4.225087      1.00       1.0079
     118     1 O    8   -4.051130    1.544593   -5.062650      6.00      15.9994
     119     2 H    1   -3.538710    0.797484   -4.621055      1.00       1.0079
     120     2 H    1   -4.033382    2.351849   -4.430137      1.00       1.0079
     121     1 O    8    3.484773    0.599769    4.009149      6.00      15.9994
     122     2 H    1    2.789650    0.537511    3.268667      1.00       1.0079
     123     2 H    1    4.318998    0.415332    3.439528      1.00       1.0079
     124     1 O    8   -4.620748   -1.011762    4.004895      6.00      15.9994
     125     2 H    1   -5.347759   -1.244306    4.625324      1.00       1.0079
     126     2 H    1   -4.216388   -1.884479    3.842806      1.00       1.0079
     127     1 O    8   -0.216539    1.275147    3.116717      6.00      15.9994
     128     2 H    1    0.637178    1.413680    2.728697      1.00       1.0079
     129     2 H    1   -0.389412    0.322584    3.050879      1.00       1.0079
     130     1 O    8   -1.991535    5.069708    0.600019      6.00      15.9994
     131     2 H    1   -2.337650    4.234088    1.001390      1.00       1.0079
     132     2 H    1   -2.652025    5.747116    0.850662      1.00       1.0079
     133     1 O    8   -1.307547   -1.895612   -4.954292      6.00      15.9994
     134     2 H    1   -0.870125   -2.402819   -4.256374      1.00       1.0079
     135     2 H    1   -0.594969   -1.353212   -5.453243      1.00       1.0079
     136     1 O    8   -5.137345    1.806207   -1.286768      6.00      15.9994
     137     2 H    1   -4.698159    2.459748   -1.850567      1.00       1.0079
     138     2 H    1   -5.424553    1.125693   -1.863395      1.00       1.0079
     139     1 O    8   -7.383656   -1.211987   -1.950660      6.00      15.9994
     140     2 H    1   -6.421288   -1.037143   -2.146380      1.00       1.0079
     141     2 H    1   -7.480878   -1.531048   -1.033948      1.00       1.0079
     142     1 O    8   -0.463945    1.404847   -1.722864      6.00      15.9994
     143     2 H    1   -0.786735    2.186650   -2.196230      1.00       1.0079
     144     2 H    1    0.274393    0.986416   -2.221585      1.00       1.0079
     145     1 O    8   -0.029811   -6.521092   -1.093364      6.00      15.9994
     146     2 H    1    0.002142   -5.531145   -1.122665      1.00       1.0079
     147     2 H    1   -0.803113   -6.743514   -0.464856      1.00       1.0079
     148     1 O    8    5.709094   -1.692709    6.018549      6.00      15.9994
     149     2 H    1    6.022772   -2.510238    6.419541      1.00       1.0079
     150     2 H    1    5.679350   -0.901240    6.652196      1.00       1.0079
     151     1 O    8   -2.596298   -5.768397   -4.219577      6.00      15.9994
     152     2 H    1   -2.604903   -6.707767   -4.472834      1.00       1.0079
     153     2 H    1   -3.435454   -5.564584   -3.848351      1.00       1.0079
     154     1 O    8   -4.944969   -1.408672   -3.247339      6.00      15.9994
     155     2 H    1   -4.891302   -2.221732   -3.767422      1.00       1.0079
     156     2 H    1   -3.968955   -1.096486   -3.234198      1.00       1.0079
     157     1 O    8    2.298375   -8.080949   -1.213241      6.00      15.9994
     158     2 H    1    1.300368   -8.063628   -1.114392      1.00       1.0079
     159     2 H    1    2.516194   -7.105367   -1.176852      1.00       1.0079
     160     1 O    8    6.775436   -3.896533   -5.335926      6.00      15.9994
     161     2 H    1    7.549942   -4.100300   -5.821362      1.00       1.0079
     162     2 H    1    6.043016   -4.432815   -5.647961      1.00       1.0079
     163     1 O    8   -0.342484    4.965811    2.950829      6.00      15.9994
     164     2 H    1   -0.641824    4.167256    3.471638      1.00       1.0079
     165     2 H    1   -0.675974    4.869938    2.055138      1.00       1.0079
     166     1 O    8   -2.805629   -4.004823    6.223906      6.00      15.9994
     167     2 H    1   -2.385060   -4.632289    6.845556      1.00       1.0079
     168     2 H    1   -2.379735   -3.149823    6.433016      1.00       1.0079
     169     1 O    8   -2.792511   -3.473224    3.461233      6.00      15.9994
     170     2 H    1   -3.112954   -3.862064    4.274613      1.00       1.0079
     171     2 H    1   -3.285609   -4.027145    2.827441      1.00       1.0079
     172     1 O    8    2.486771    4.680362   -3.951121      6.00      15.9994
     173     2 H    1    3.397137    4.508164   -3.629816      1.00       1.0079
     174     2 H    1    1.979071    4.624068   -3.115244      1.00       1.0079
     175     1 O    8    1.659077    0.052314   -3.106919      6.00      15.9994
     176     2 H    1    1.511356   -0.599677   -2.356369      1.00       1.0079
     177     2 H    1    2.506872    0.526419   -3.066152      1.00       1.0079
     178     1 O    8   -1.202305   -8.160348   -6.367070      6.00      15.9994
     179     2 H    1   -0.905516   -9.069055   -6.570527      1.00       1.0079
     180     2 H    1   -2.179810   -8.074002   -6.546491      1.00       1.0079
     181     1 O    8   -0.476107    8.385162    0.598747      6.00      15.9994
     182     2 H    1    0.363244    8.309655    1.105835      1.00       1.0079
     183     2 H    1   -1.285239    8.075385    1.058726      1.00       1.0079
     184     1 O    8    5.906545   -6.798977   -6.600440      6.00      15.9994
     185     2 H    1    5.413015   -7.623317   -6.913788      1.00       1.0079
     186     2 H    1    6.217751   -6.234454   -7.319872      1.00       1.0079
     187     1 O    8   -0.359433   -5.262244    4.670430      6.00      15.9994
     188     2 H    1   -0.415613   -6.098882    4.136748      1.00       1.0079
     189     2 H    1   -1.293113   -5.154797    4.949758      1.00       1.0079
     190     1 O    8   -3.827313   -5.527924    1.763366      6.00      15.9994
     191     2 H    1   -4.138854   -6.362200    2.151380      1.00       1.0079
     192     2 H    1   -4.395567   -5.321694    1.040595      1.00       1.0079




 SCF PARAMETERS         Density guess:                                   RESTART
                        --------------------------------------------------------
                        max_scf:                                              30
                        max_scf_history:                                       0
                        max_diis:                                              4
                        --------------------------------------------------------
                        eps_scf:                                        1.00E-06
                        eps_scf_history:                                0.00E+00
                        eps_diis:                                       1.00E-01
                        eps_eigval:                                     1.00E-05
                        --------------------------------------------------------
                        level_shift [a.u.]:                                 0.00
                        --------------------------------------------------------
                        Outer loop SCF in use 
                        No variables optimised in outer loop
                        eps_scf                                         1.00E-06
                        max_scf                                               10
                        No outer loop optimization
                        step_size                                       5.00E-01

 PW_GRID| Information for grid number                                          1
 PW_GRID| Grid distributed over                                    64 processors
 PW_GRID| Real space group dimensions                                    64    1
 PW_GRID| the grid is blocked:                                                NO
 PW_GRID| Cutoff [a.u.]                                                    200.0
 PW_GRID| spherical cutoff:                                                   NO
 PW_GRID|   Bounds   1            -75      74                Points:         150
 PW_GRID|   Bounds   2            -75      74                Points:         150
 PW_GRID|   Bounds   3            -75      74                Points:         150
 PW_GRID| Volume element (a.u.^3)  0.3831E-02     Volume (a.u.^3)     12928.8946
 PW_GRID| Grid span                                                    FULLSPACE
 PW_GRID|   Distribution                         Average         Max         Min
 PW_GRID|   G-Vectors                            52734.4       52800       52650
 PW_GRID|   G-Rays                                 351.6         352         351
 PW_GRID|   Real Space Points                    52734.4       67500       45000

 PW_GRID| Information for grid number                                          2
 PW_GRID| Grid distributed over                                    64 processors
 PW_GRID| Real space group dimensions                                    64    1
 PW_GRID| the grid is blocked:                                                NO
 PW_GRID| Cutoff [a.u.]                                                     66.7
 PW_GRID| spherical cutoff:                                                   NO
 PW_GRID|   Bounds   1            -45      44                Points:          90
 PW_GRID|   Bounds   2            -45      44                Points:          90
 PW_GRID|   Bounds   3            -45      44                Points:          90
 PW_GRID| Volume element (a.u.^3)  0.1774E-01     Volume (a.u.^3)     12928.8946
 PW_GRID| Grid span                                                    FULLSPACE
 PW_GRID|   Distribution                         Average         Max         Min
 PW_GRID|   G-Vectors                            11390.6       11430       11340
 PW_GRID|   G-Rays                                 126.6         127         126
 PW_GRID|   Real Space Points                    11390.6       16200        8100

 PW_GRID| Information for grid number                                          3
 PW_GRID| Grid distributed over                                    64 processors
 PW_GRID| Real space group dimensions                                     8    8
 PW_GRID| the grid is blocked:                                                NO
 PW_GRID| Cutoff [a.u.]                                                     22.2
 PW_GRID| spherical cutoff:                                                   NO
 PW_GRID|   Bounds   1            -27      26                Points:          54
 PW_GRID|   Bounds   2            -27      26                Points:          54
 PW_GRID|   Bounds   3            -27      26                Points:          54
 PW_GRID| Volume element (a.u.^3)  0.8211E-01     Volume (a.u.^3)     12928.8946
 PW_GRID| Grid span                                                    FULLSPACE
 PW_GRID|   Distribution                         Average         Max         Min
 PW_GRID|   G-Vectors                             2460.4        2592        2322
 PW_GRID|   G-Rays                                  45.6          48          43
 PW_GRID|   Real Space Points                     2460.4        2646        1944

 PW_GRID| Information for grid number                                          4
 PW_GRID| Grid distributed over                                    64 processors
 PW_GRID| Real space group dimensions                                     8    8
 PW_GRID| the grid is blocked:                                                NO
 PW_GRID| Cutoff [a.u.]                                                      7.4
 PW_GRID| spherical cutoff:                                                   NO
 PW_GRID|   Bounds   1            -15      14                Points:          30
 PW_GRID|   Bounds   2            -15      14                Points:          30
 PW_GRID|   Bounds   3            -15      14                Points:          30
 PW_GRID| Volume element (a.u.^3)  0.4788         Volume (a.u.^3)     12928.8946
 PW_GRID| Grid span                                                    FULLSPACE
 PW_GRID|   Distribution                         Average         Max         Min
 PW_GRID|   G-Vectors                              421.9         480         390
 PW_GRID|   G-Rays                                  14.1          16          13
 PW_GRID|   Real Space Points                      421.9         480         270

 POISSON| Solver                                                        PERIODIC
 POISSON| Periodicity                                                        XYZ

 RS_GRID| Information for grid number                                          1
 RS_GRID|   Bounds   1            -75      74                Points:         150
 RS_GRID|   Bounds   2            -75      74                Points:         150
 RS_GRID|   Bounds   3            -75      74                Points:         150
 RS_GRID| Real space distribution over                                  4 groups
 RS_GRID| Real space distribution along direction                              1
 RS_GRID| Border size                                                         19
 RS_GRID| Real space distribution over                                  4 groups
 RS_GRID| Real space distribution along direction                              2
 RS_GRID| Border size                                                         19
 RS_GRID| Real space distribution over                                  4 groups
 RS_GRID| Real space distribution along direction                              3
 RS_GRID| Border size                                                         19
 RS_GRID|   Distribution                         Average         Max         Min
 RS_GRID|   Planes                                  75.5          76          75
 RS_GRID|   Distribution                         Average         Max         Min
 RS_GRID|   Planes                                  75.5          76          75
 RS_GRID|   Distribution                         Average         Max         Min
 RS_GRID|   Planes                                  75.5          76          75

 RS_GRID| Information for grid number                                          2
 RS_GRID|   Bounds   1            -45      44                Points:          90
 RS_GRID|   Bounds   2            -45      44                Points:          90
 RS_GRID|   Bounds   3            -45      44                Points:          90
 RS_GRID| Real space distribution over                                  4 groups
 RS_GRID| Real space distribution along direction                              1
 RS_GRID| Border size                                                         20
 RS_GRID| Real space distribution over                                  4 groups
 RS_GRID| Real space distribution along direction                              2
 RS_GRID| Border size                                                         20
 RS_GRID| Real space distribution over                                  4 groups
 RS_GRID| Real space distribution along direction                              3
 RS_GRID| Border size                                                         20
 RS_GRID|   Distribution                         Average         Max         Min
 RS_GRID|   Planes                                  62.5          63          62
 RS_GRID|   Distribution                         Average         Max         Min
 RS_GRID|   Planes                                  62.5          63          62
 RS_GRID|   Distribution                         Average         Max         Min
 RS_GRID|   Planes                                  62.5          63          62

 RS_GRID| Information for grid number                                          3
 RS_GRID|   Bounds   1            -27      26                Points:          54
 RS_GRID|   Bounds   2            -27      26                Points:          54
 RS_GRID|   Bounds   3            -27      26                Points:          54
 RS_GRID| Real space fully replicated
 RS_GRID| Group size                                                           1

 RS_GRID| Information for grid number                                          4
 RS_GRID|   Bounds   1            -15      14                Points:          30
 RS_GRID|   Bounds   2            -15      14                Points:          30
 RS_GRID|   Bounds   3            -15      14                Points:          30
 RS_GRID| Real space fully replicated
 RS_GRID| Group size                                                           1

 DISTRIBUTION OF THE PARTICLES (ROWS)
              Process row      Number of particles         Number of matrix rows
                        0                       24                            -1
                        1                       24                            -1
                        2                       24                            -1
                        3                       24                            -1
                        4                       24                            -1
                        5                       24                            -1
                        6                       24                            -1
                        7                       24                            -1
                      Sum                      192                            -1

 DISTRIBUTION OF THE PARTICLES (COLUMNS)
              Process col      Number of particles      Number of matrix columns
                        0                       24                            -1
                        1                       24                            -1
                        2                       24                            -1
                        3                       24                            -1
                        4                       24                            -1
                        5                       24                            -1
                        6                       24                            -1
                        7                       24                            -1
                      Sum                      192                            -1

  HFX_INFO| Replica ID:                                                        1
  HFX_INFO| EPS_SCHWARZ:                                                 1.0E-06
  HFX_INFO| EPS_SCHWARZ_FORCES                                           1.0E-06
  HFX_INFO| EPS_STORAGE_SCALING:                                         1.0E-01
  HFX_INFO| NBINS:                                                            64
  HFX_INFO| BLOCK_SIZE:                                                        3
  HFX_INFO| FRACTION:                                               0.8000000000
  HFX_INFO| Interaction Potential:                                     TRUNCATED
  HFX_INFO| Cutoff Radius [angstrom]:                               6.0000000000
  HFX_INFO| NUMBER_OF_SHELLS:                                               AUTO
  HFX_INFO| Number of periodic shells considered:                             -1
  HFX_INFO| Number of periodic cells considered:                              27


 DISTRIBUTION OF THE NEIGHBOR LISTS
              Total number of particle pairs:                              21379
              Total number of matrix elements:                           1231147
              Average number of particle pairs:                              335
              Maximum number of particle pairs:                              370
              Average number of matrix element:                            19237
              Maximum number of matrix elements:                           21624


 DISTRIBUTION OF THE OVERLAP MATRIX
              Number  of non-zero blocks:                                  16652
              Percentage non-zero blocks:                                  89.87
              Average number of blocks per CPU:                              261
              Maximum number of blocks per CPU:                              279
              Average number of matrix elements per CPU:                   15194
              Maximum number of matrix elements per CPU:                   16625

 Number of electrons:                                                        512
 Number of occupied orbitals:                                                256
 Number of molecular orbitals:                                               256

 Number of orbital functions:                                               1472
 Number of independent orbital functions:                                   1472

 Extrapolation method: initial_guess


 SCF WAVEFUNCTION OPTIMIZATION

  ----------------------------------- OT ---------------------------------------

  Allowing for rotations:  F
  Optimizing orbital energies:  F
  Minimizer      : DIIS                : direct inversion
                                         in the iterative subspace
                            using      : -   7 DIIS vectors
                                         - safer DIIS on
  Preconditioner : FULL_SINGLE_INVERSE : inversion of H + eS - 2*(Sc)(c^T*H*c+const)(Sc)^T
  Precond_solver : DEFAULT
  stepsize       :    0.08000000
  energy_gap     :    0.08000000

  eps_taylor     :   0.10000E-15
  max_taylor     :             4

  mixed_precision    : F

  ----------------------------------- OT ---------------------------------------

  Step     Update method      Time    Convergence         Total energy    Change
  ------------------------------------------------------------------------------

  Trace(PS):                                  512.0000000000
  Electronic density on regular grids:       -511.9999999886        0.0000000114
  Core density on regular grids:              511.9999999836       -0.0000000164
  Total charge density on r-space grids:       -0.0000000051
  Total charge density g-space grids:          -0.0000000051


  HFX_MEM_INFO| Est. max. program size before HFX [MB's]:                    153

 *** 12:08:54 WARNING in hfx_energy_potential:integrate_four_center :: The ***
 *** Kohn Sham matrix is not 100% occupied. This may result in uncorrect   ***
 *** Hartree-Fock results. Try to decrease EPS_PGF_ORB and                 ***
 *** EPS_FILTER_MATRIX in the QS section.                                  ***

  HFX_MEM_INFO| Number of cart. primitive ERI's calculated:          16091091976
  HFX_MEM_INFO| Number of sph. ERI's calculated:                      3464714451
  HFX_MEM_INFO| Number of sph. ERI's stored in-core:                  1148714899
  HFX_MEM_INFO| Number of sph. ERI's stored on disk:                           0
  HFX_MEM_INFO| Number of sph. ERI's calculated on the fly:                    0
  HFX_MEM_INFO| Total memory consumption ERI's RAM [MB's]:                  1110
  HFX_MEM_INFO| Whereof max-vals [MB's]:                                      62
  HFX_MEM_INFO| Total compression factor ERI's RAM:                         7.90
  HFX_MEM_INFO| Total memory consumption ERI's disk [MB's]:                    0
  HFX_MEM_INFO| Total compression factor ERI's disk:                        0.00
  HFX_MEM_INFO| Size of density/Fock matrix [MB's]:                           14
  HFX_MEM_INFO| Size of buffers [MB's]:                                        2
  HFX_MEM_INFO| Number of periodic image cells considered:                    27
  HFX_MEM_INFO| Est. max. program size after HFX  [MB's]:                    193

     1 OT DIIS     0.80E-01   16.1     0.00182920     -1101.2744300918 -1.10E+03

  Trace(PS):                                  512.0000000000
  Electronic density on regular grids:       -511.9999999887        0.0000000113
  Core density on regular grids:              511.9999999836       -0.0000000164
  Total charge density on r-space grids:       -0.0000000051
  Total charge density g-space grids:          -0.0000000051

     2 OT DIIS     0.80E-01    1.4     0.00131653     -1101.3610276056 -8.66E-02

  Trace(PS):                                  512.0000000000
  Electronic density on regular grids:       -511.9999999887        0.0000000113
  Core density on regular grids:              511.9999999836       -0.0000000164
  Total charge density on r-space grids:       -0.0000000052
  Total charge density g-space grids:          -0.0000000052

     3 OT DIIS     0.80E-01    1.4     0.00026323     -1101.4562046743 -9.52E-02

  Trace(PS):                                  512.0000000000
  Electronic density on regular grids:       -511.9999999888        0.0000000112
  Core density on regular grids:              511.9999999836       -0.0000000164
  Total charge density on r-space grids:       -0.0000000052
  Total charge density g-space grids:          -0.0000000052

     4 OT DIIS     0.80E-01    1.4     0.00009890     -1101.4598438427 -3.64E-03

  Trace(PS):                                  512.0000000000
  Electronic density on regular grids:       -511.9999999888        0.0000000112
  Core density on regular grids:              511.9999999836       -0.0000000164
  Total charge density on r-space grids:       -0.0000000052
  Total charge density g-space grids:          -0.0000000052

     5 OT DIIS     0.80E-01    1.4     0.00004027     -1101.4604189700 -5.75E-04

  Trace(PS):                                  512.0000000000
  Electronic density on regular grids:       -511.9999999888        0.0000000112
  Core density on regular grids:              511.9999999836       -0.0000000164
  Total charge density on r-space grids:       -0.0000000052
  Total charge density g-space grids:          -0.0000000052

     6 OT DIIS     0.80E-01    1.4     0.00001856     -1101.4605202959 -1.01E-04

  Trace(PS):                                  512.0000000000
  Electronic density on regular grids:       -511.9999999888        0.0000000112
  Core density on regular grids:              511.9999999836       -0.0000000164
  Total charge density on r-space grids:       -0.0000000052
  Total charge density g-space grids:          -0.0000000052

     7 OT DIIS     0.80E-01    1.4     0.00000680     -1101.4605376014 -1.73E-05

  Trace(PS):                                  512.0000000000
  Electronic density on regular grids:       -511.9999999888        0.0000000112
  Core density on regular grids:              511.9999999836       -0.0000000164
  Total charge density on r-space grids:       -0.0000000052
  Total charge density g-space grids:          -0.0000000052

     8 OT DIIS     0.80E-01    1.4     0.00000244     -1101.4605401988 -2.60E-06

  Trace(PS):                                  512.0000000000
  Electronic density on regular grids:       -511.9999999888        0.0000000112
  Core density on regular grids:              511.9999999836       -0.0000000164
  Total charge density on r-space grids:       -0.0000000052
  Total charge density g-space grids:          -0.0000000052

     9 OT DIIS     0.80E-01    1.4     0.00000083     -1101.4605405698 -3.71E-07

  *** SCF run converged in     9 steps ***


  Electronic density on regular grids:       -511.9999999888        0.0000000112
  Core density on regular grids:              511.9999999836       -0.0000000164
  Total charge density on r-space grids:       -0.0000000052
  Total charge density g-space grids:          -0.0000000052

  Overlap energy of the core charge distribution:               0.00000237129466
  Self energy of the core charge distribution:              -2838.21791979121008
  Core Hamiltonian energy:                                    828.24943381142884
  Hartree energy:                                            1180.48448683854031
  Exchange-correlation energy:                                -69.50114400128757
  Hartree-Fock Exchange energy:                              -202.22903281039271
  Dispersion energy:                                           -0.24636698815184

  Total energy:                                             -1101.46054056977846

  outer SCF iter =    1 RMS gradient =   0.83E-06 energy =      -1101.4605405698
  outer SCF loop converged in   1 iterations or    9 steps



 MULLIKEN POPULATION ANALYSIS

 #  Atom  Element  Kind  Atomic population                Net charge
       1     O        1          6.627846                 -0.627846
       2     H        2          0.701841                  0.298159
       3     H        2          0.671229                  0.328771
       4     O        1          6.609594                 -0.609594
       5     H        2          0.716965                  0.283035
       6     H        2          0.648525                  0.351475
       7     O        1          6.604509                 -0.604509
       8     H        2          0.665202                  0.334798
       9     H        2          0.724037                  0.275963
      10     O        1          6.623503                 -0.623503
      11     H        2          0.722909                  0.277091
      12     H        2          0.689834                  0.310166
      13     O        1          6.622199                 -0.622199
      14     H        2          0.677351                  0.322649
      15     H        2          0.705644                  0.294356
      16     O        1          6.733741                 -0.733741
      17     H        2          0.637030                  0.362970
      18     H        2          0.637821                  0.362179
      19     O        1          6.618157                 -0.618157
      20     H        2          0.640604                  0.359396
      21     H        2          0.735232                  0.264768
      22     O        1          6.552193                 -0.552193
      23     H        2          0.741875                  0.258125
      24     H        2          0.703952                  0.296048
      25     O        1          6.602192                 -0.602192
      26     H        2          0.725850                  0.274150
      27     H        2          0.662498                  0.337502
      28     O        1          6.628590                 -0.628590
      29     H        2          0.702432                  0.297568
      30     H        2          0.679752                  0.320248
      31     O        1          6.575340                 -0.575340
      32     H        2          0.695384                  0.304616
      33     H        2          0.737260                  0.262740
      34     O        1          6.725673                 -0.725673
      35     H        2          0.670158                  0.329842
      36     H        2          0.615432                  0.384568
      37     O        1          6.621452                 -0.621452
      38     H        2          0.681076                  0.318924
      39     H        2          0.673919                  0.326081
      40     O        1          6.542691                 -0.542691
      41     H        2          0.684805                  0.315195
      42     H        2          0.766870                  0.233130
      43     O        1          6.724189                 -0.724189
      44     H        2          0.646921                  0.353079
      45     H        2          0.660010                  0.339990
      46     O        1          6.625803                 -0.625803
      47     H        2          0.709359                  0.290641
      48     H        2          0.670431                  0.329569
      49     O        1          6.667642                 -0.667642
      50     H        2          0.644737                  0.355263
      51     H        2          0.689794                  0.310206
      52     O        1          6.647385                 -0.647385
      53     H        2          0.701221                  0.298779
      54     H        2          0.671227                  0.328773
      55     O        1          6.706587                 -0.706587
      56     H        2          0.664968                  0.335032
      57     H        2          0.633003                  0.366997
      58     O        1          6.644036                 -0.644036
      59     H        2          0.682512                  0.317488
      60     H        2          0.668149                  0.331851
      61     O        1          6.692251                 -0.692251
      62     H        2          0.669080                  0.330920
      63     H        2          0.630345                  0.369655
      64     O        1          6.614872                 -0.614872
      65     H        2          0.713642                  0.286358
      66     H        2          0.679600                  0.320400
      67     O        1          6.668908                 -0.668908
      68     H        2          0.674295                  0.325705
      69     H        2          0.665787                  0.334213
      70     O        1          6.581014                 -0.581014
      71     H        2          0.693434                  0.306566
      72     H        2          0.733920                  0.266080
      73     O        1          6.630434                 -0.630434
      74     H        2          0.674508                  0.325492
      75     H        2          0.690196                  0.309804
      76     O        1          6.602518                 -0.602518
      77     H        2          0.676734                  0.323266
      78     H        2          0.700536                  0.299464
      79     O        1          6.634066                 -0.634066
      80     H        2          0.645333                  0.354667
      81     H        2          0.723625                  0.276375
      82     O        1          6.710372                 -0.710372
      83     H        2          0.622375                  0.377625
      84     H        2          0.661846                  0.338154
      85     O        1          6.734946                 -0.734946
      86     H        2          0.658098                  0.341902
      87     H        2          0.592834                  0.407166
      88     O        1          6.687845                 -0.687845
      89     H        2          0.631494                  0.368506
      90     H        2          0.660050                  0.339950
      91     O        1          6.614561                 -0.614561
      92     H        2          0.738220                  0.261780
      93     H        2          0.640468                  0.359532
      94     O        1          6.685593                 -0.685593
      95     H        2          0.676550                  0.323450
      96     H        2          0.635236                  0.364764
      97     O        1          6.669878                 -0.669878
      98     H        2          0.709056                  0.290944
      99     H        2          0.617119                  0.382881
     100     O        1          6.610815                 -0.610815
     101     H        2          0.685629                  0.314371
     102     H        2          0.691301                  0.308699
     103     O        1          6.659760                 -0.659760
     104     H        2          0.716278                  0.283722
     105     H        2          0.608407                  0.391593
     106     O        1          6.617363                 -0.617363
     107     H        2          0.680449                  0.319551
     108     H        2          0.739607                  0.260393
     109     O        1          6.646809                 -0.646809
     110     H        2          0.669655                  0.330345
     111     H        2          0.685909                  0.314091
     112     O        1          6.619170                 -0.619170
     113     H        2          0.661159                  0.338841
     114     H        2          0.733990                  0.266010
     115     O        1          6.691154                 -0.691154
     116     H        2          0.668263                  0.331737
     117     H        2          0.647227                  0.352773
     118     O        1          6.707652                 -0.707652
     119     H        2          0.662019                  0.337981
     120     H        2          0.644849                  0.355151
     121     O        1          6.629585                 -0.629585
     122     H        2          0.701901                  0.298099
     123     H        2          0.666578                  0.333422
     124     O        1          6.589716                 -0.589716
     125     H        2          0.679052                  0.320948
     126     H        2          0.729855                  0.270145
     127     O        1          6.639288                 -0.639288
     128     H        2          0.672685                  0.327315
     129     H        2          0.661524                  0.338476
     130     O        1          6.653183                 -0.653183
     131     H        2          0.666205                  0.333795
     132     H        2          0.690328                  0.309672
     133     O        1          6.676685                 -0.676685
     134     H        2          0.711326                  0.288674
     135     H        2          0.605878                  0.394122
     136     O        1          6.592377                 -0.592377
     137     H        2          0.662435                  0.337565
     138     H        2          0.747966                  0.252034
     139     O        1          6.659864                 -0.659864
     140     H        2          0.672604                  0.327396
     141     H        2          0.669320                  0.330680
     142     O        1          6.608244                 -0.608244
     143     H        2          0.700364                  0.299636
     144     H        2          0.692523                  0.307477
     145     O        1          6.679366                 -0.679366
     146     H        2          0.685138                  0.314862
     147     H        2          0.625951                  0.374049
     148     O        1          6.679799                 -0.679799
     149     H        2          0.681156                  0.318844
     150     H        2          0.651903                  0.348097
     151     O        1          6.556389                 -0.556389
     152     H        2          0.730379                  0.269621
     153     H        2          0.710442                  0.289558
     154     O        1          6.616453                 -0.616453
     155     H        2          0.718358                  0.281642
     156     H        2          0.656929                  0.343071
     157     O        1          6.626118                 -0.626118
     158     H        2          0.680708                  0.319292
     159     H        2          0.687910                  0.312090
     160     O        1          6.563488                 -0.563488
     161     H        2          0.687084                  0.312916
     162     H        2          0.718321                  0.281679
     163     O        1          6.595244                 -0.595244
     164     H        2          0.710593                  0.289407
     165     H        2          0.712732                  0.287268
     166     O        1          6.635852                 -0.635852
     167     H        2          0.692206                  0.307794
     168     H        2          0.677513                  0.322487
     169     O        1          6.587312                 -0.587312
     170     H        2          0.705077                  0.294923
     171     H        2          0.695740                  0.304260
     172     O        1          6.634837                 -0.634837
     173     H        2          0.660898                  0.339102
     174     H        2          0.724376                  0.275624
     175     O        1          6.705236                 -0.705236
     176     H        2          0.644576                  0.355424
     177     H        2          0.649743                  0.350257
     178     O        1          6.657861                 -0.657861
     179     H        2          0.668694                  0.331306
     180     H        2          0.650654                  0.349346
     181     O        1          6.577872                 -0.577872
     182     H        2          0.713026                  0.286974
     183     H        2          0.714551                  0.285449
     184     O        1          6.655901                 -0.655901
     185     H        2          0.675123                  0.324877
     186     H        2          0.680231                  0.319769
     187     O        1          6.610553                 -0.610553
     188     H        2          0.656988                  0.343012
     189     H        2          0.733365                  0.266635
     190     O        1          6.658913                 -0.658913
     191     H        2          0.662046                  0.337954
     192     H        2          0.666659                  0.333341
 # Total charge                512.000000                  0.000000


 !-----------------------------------------------------------------------------!
                           Hirschfeld Charges

  #Atom  Element  Kind  Ref Charge     Population                     Net charge
      1       O      1       6.000          6.548                         -0.548
      2       H      2       1.000          0.718                          0.282
      3       H      2       1.000          0.734                          0.266
      4       O      1       6.000          6.527                         -0.527
      5       H      2       1.000          0.728                          0.272
      6       H      2       1.000          0.712                          0.288
      7       O      1       6.000          6.512                         -0.512
      8       H      2       1.000          0.737                          0.263
      9       H      2       1.000          0.721                          0.279
     10       O      1       6.000          6.504                         -0.504
     11       H      2       1.000          0.736                          0.264
     12       H      2       1.000          0.737                          0.263
     13       O      1       6.000          6.533                         -0.533
     14       H      2       1.000          0.722                          0.278
     15       H      2       1.000          0.724                          0.276
     16       O      1       6.000          6.548                         -0.548
     17       H      2       1.000          0.723                          0.277
     18       H      2       1.000          0.743                          0.257
     19       O      1       6.000          6.539                         -0.539
     20       H      2       1.000          0.742                          0.258
     21       H      2       1.000          0.733                          0.267
     22       O      1       6.000          6.540                         -0.540
     23       H      2       1.000          0.721                          0.279
     24       H      2       1.000          0.729                          0.271
     25       O      1       6.000          6.538                         -0.538
     26       H      2       1.000          0.732                          0.268
     27       H      2       1.000          0.731                          0.269
     28       O      1       6.000          6.531                         -0.531
     29       H      2       1.000          0.735                          0.265
     30       H      2       1.000          0.726                          0.274
     31       O      1       6.000          6.591                         -0.591
     32       H      2       1.000          0.720                          0.280
     33       H      2       1.000          0.746                          0.254
     34       O      1       6.000          6.559                         -0.559
     35       H      2       1.000          0.730                          0.270
     36       H      2       1.000          0.737                          0.263
     37       O      1       6.000          6.524                         -0.524
     38       H      2       1.000          0.730                          0.270
     39       H      2       1.000          0.726                          0.274
     40       O      1       6.000          6.530                         -0.530
     41       H      2       1.000          0.732                          0.268
     42       H      2       1.000          0.727                          0.273
     43       O      1       6.000          6.537                         -0.537
     44       H      2       1.000          0.728                          0.272
     45       H      2       1.000          0.753                          0.247
     46       O      1       6.000          6.524                         -0.524
     47       H      2       1.000          0.742                          0.258
     48       H      2       1.000          0.743                          0.257
     49       O      1       6.000          6.573                         -0.573
     50       H      2       1.000          0.745                          0.255
     51       H      2       1.000          0.732                          0.268
     52       O      1       6.000          6.568                         -0.568
     53       H      2       1.000          0.739                          0.261
     54       H      2       1.000          0.746                          0.254
     55       O      1       6.000          6.512                         -0.512
     56       H      2       1.000          0.726                          0.274
     57       H      2       1.000          0.735                          0.265
     58       O      1       6.000          6.549                         -0.549
     59       H      2       1.000          0.718                          0.282
     60       H      2       1.000          0.736                          0.264
     61       O      1       6.000          6.500                         -0.500
     62       H      2       1.000          0.725                          0.275
     63       H      2       1.000          0.727                          0.273
     64       O      1       6.000          6.542                         -0.542
     65       H      2       1.000          0.737                          0.263
     66       H      2       1.000          0.740                          0.260
     67       O      1       6.000          6.534                         -0.534
     68       H      2       1.000          0.747                          0.253
     69       H      2       1.000          0.742                          0.258
     70       O      1       6.000          6.550                         -0.550
     71       H      2       1.000          0.745                          0.255
     72       H      2       1.000          0.719                          0.281
     73       O      1       6.000          6.511                         -0.511
     74       H      2       1.000          0.740                          0.260
     75       H      2       1.000          0.738                          0.262
     76       O      1       6.000          6.511                         -0.511
     77       H      2       1.000          0.728                          0.272
     78       H      2       1.000          0.731                          0.269
     79       O      1       6.000          6.516                         -0.516
     80       H      2       1.000          0.732                          0.268
     81       H      2       1.000          0.710                          0.290
     82       O      1       6.000          6.560                         -0.560
     83       H      2       1.000          0.741                          0.259
     84       H      2       1.000          0.724                          0.276
     85       O      1       6.000          6.524                         -0.524
     86       H      2       1.000          0.731                          0.269
     87       H      2       1.000          0.718                          0.282
     88       O      1       6.000          6.509                         -0.509
     89       H      2       1.000          0.724                          0.276
     90       H      2       1.000          0.738                          0.262
     91       O      1       6.000          6.539                         -0.539
     92       H      2       1.000          0.724                          0.276
     93       H      2       1.000          0.740                          0.260
     94       O      1       6.000          6.537                         -0.537
     95       H      2       1.000          0.724                          0.276
     96       H      2       1.000          0.727                          0.273
     97       O      1       6.000          6.541                         -0.541
     98       H      2       1.000          0.716                          0.284
     99       H      2       1.000          0.738                          0.262
    100       O      1       6.000          6.516                         -0.516
    101       H      2       1.000          0.729                          0.271
    102       H      2       1.000          0.728                          0.272
    103       O      1       6.000          6.519                         -0.519
    104       H      2       1.000          0.723                          0.277
    105       H      2       1.000          0.722                          0.278
    106       O      1       6.000          6.555                         -0.555
    107       H      2       1.000          0.738                          0.262
[...]
  
  Eigenvalues of the occupied subspace spin            1
 ---------------------------------------------
      -1.21107098     -1.20740422     -1.20602912     -1.20330009
      -1.20163529     -1.19991397     -1.19870865     -1.19799364
      -1.19767579     -1.19517912     -1.19325646     -1.19175778
      -1.19022050     -1.18859339     -1.18803515     -1.18785432
      -1.18658225     -1.18553677     -1.18277331     -1.18233829
      -1.18145661     -1.18033343     -1.17861143     -1.17764683
      -1.17719362     -1.17591679     -1.17556461     -1.17478178
      -1.17408474     -1.17146928     -1.17075856     -1.17044972
      -1.17011696     -1.16949111     -1.16906189     -1.16790631
      -1.16700903     -1.16513979     -1.16473377     -1.16365128
      -1.16185747     -1.16173302     -1.16087771     -1.16054587
      -1.15889497     -1.15803221     -1.15643681     -1.15583369
      -1.15502549     -1.15433976     -1.15253088     -1.15099459
      -1.14818374     -1.14768969     -1.14604942     -1.14283084
      -1.14171328     -1.13988207     -1.13816035     -1.13498979
      -1.13437719     -1.13083904     -1.12276585     -1.11524782
      -0.61721307     -0.61109565     -0.60805073     -0.60588032
      -0.60521514     -0.60377995     -0.60348274     -0.60265426
      -0.59973983     -0.59873901     -0.59751816     -0.59644816
      -0.59565431     -0.59384298     -0.59334433     -0.59079049
      -0.58988385     -0.58866440     -0.58806392     -0.58737130
      -0.58566058     -0.58503596     -0.58456393     -0.58280772
      -0.58102384     -0.58041298     -0.57918637     -0.57850369
      -0.57787438     -0.57700851     -0.57615599     -0.57431569
      -0.57356780     -0.57212221     -0.57103115     -0.56983152
      -0.56958965     -0.56913785     -0.56881310     -0.56826214
      -0.56799335     -0.56730746     -0.56680201     -0.56616327
      -0.56423884     -0.56334210     -0.56288443     -0.56079616
      -0.56049784     -0.55966608     -0.55924348     -0.55811402
      -0.55567791     -0.55408957     -0.55268179     -0.54825812
      -0.54733185     -0.54469498     -0.54219627     -0.53996290
      -0.53851069     -0.53496091     -0.53264393     -0.51397902
      -0.50156128     -0.49755892     -0.49342833     -0.49248079
      -0.49097959     -0.48803732     -0.48716568     -0.48313560
      -0.48240271     -0.48084115     -0.47993349     -0.47634772
      -0.47216843     -0.47167643     -0.46732190     -0.46515436
      -0.46459397     -0.46385859     -0.46319827     -0.46156673
      -0.45892250     -0.45660940     -0.45376879     -0.45198805
      -0.45151511     -0.44898259     -0.44752213     -0.44575031
      -0.44200243     -0.44117828     -0.43918733     -0.43710511
      -0.43590253     -0.43489935     -0.43463867     -0.43307215
      -0.43085609     -0.43037722     -0.42798910     -0.42699982
      -0.42509862     -0.42449333     -0.42265630     -0.42149930
      -0.42021531     -0.41917055     -0.41739917     -0.41408043
      -0.41343168     -0.41288520     -0.41110655     -0.40905451
      -0.40816969     -0.40722642     -0.40690946     -0.40452733
      -0.40072281     -0.39939406     -0.39843557     -0.39763199
      -0.39556226     -0.39387675     -0.38658568     -0.38022014
      -0.37904388     -0.37703962     -0.37442851     -0.37305740
      -0.37223436     -0.37185406     -0.37111782     -0.37025343
      -0.36927672     -0.36856047     -0.36830806     -0.36683405
      -0.36553964     -0.36469349     -0.36401879     -0.36380872
      -0.36337537     -0.36289111     -0.36163949     -0.36098666
      -0.36008019     -0.35999350     -0.35941222     -0.35899522
      -0.35870907     -0.35769998     -0.35742249     -0.35695021
      -0.35615387     -0.35607299     -0.35526948     -0.35475190
      -0.35445492     -0.35429573     -0.35334104     -0.35150512
      -0.35077605     -0.34973069     -0.34952002     -0.34921117
      -0.34806956     -0.34701168     -0.34689642     -0.34612074
      -0.34551435     -0.34480036     -0.34376211     -0.34290638
      -0.34273067     -0.34165250     -0.34108449     -0.33996127
      -0.33937931     -0.33811956     -0.33720613     -0.33679461
      -0.33407471     -0.33138062     -0.33033019     -0.32869012
      -0.32804435     -0.32776174     -0.31996625     -0.31885136
 Fermi Energy [eV] :   -8.676387
  
  Lowest Eigenvalues of the unoccupied subspace spin            1
 -----------------------------------------------------
  Reached convergence in          163  iterations 
       0.17631820      0.22533456      0.23341346      0.23669709
  
 HOMO - LUMO gap [eV] :   13.474249

 ENERGY| Total FORCE_EVAL ( QS ) energy (a.u.):            -1101.460540569778459


 -------------------------------------------------------------------------------
 -                                                                             -
 -                                DBCSR STATISTICS                             -
 -                                                                             -
 -------------------------------------------------------------------------------
 COUNTER                                      CPU                  ACC      ACC%
 number of processed stacks                292271                    0       0.0
 matmuls inhomo. stacks                         0                    0       0.0
 matmuls total                           20030735                    0       0.0
 flops   4 x    4 x    4                   101248                    0       0.0
 flops  36 x    4 x   36                   850176                    0       0.0
 flops  36 x    4 x   32                  5289984                    0       0.0
 flops  32 x    4 x   36                  5289984                    0       0.0
 flops   4 x    4 x  184                 14931968                    0       0.0
 flops  36 x   36 x  184                 19077120                    0       0.0
 flops 184 x    4 x    4                 23080960                    0       0.0
 flops  36 x    4 x  184                 34762752                    0       0.0
 flops 184 x    4 x   36                 34762752                    0       0.0
 flops  32 x    4 x   32                 35536896                    0       0.0
 flops   5 x   32 x   32                 94371840                    0       0.0
 flops  32 x   36 x  184                118702080                    0       0.0
 flops  36 x   32 x  184                118702080                    0       0.0
 flops  13 x   32 x   32                122683392                    0       0.0
 flops  32 x    4 x  184                231374848                    0       0.0
 flops 184 x    4 x   32                231374848                    0       0.0
 flops 184 x   36 x  184                780042240                    0       0.0
 flops   5 x    4 x    5                988164800                    0       0.0
 flops   5 x    5 x   32               1066316800                    0       0.0
 flops  13 x    4 x    5               1264415360                    0       0.0
 flops   5 x    4 x   13               1264415360                    0       0.0
 flops  13 x    5 x   32               1352366080                    0       0.0
 flops   5 x   13 x   32               1357690880                    0       0.0
 flops 184 x    4 x  184               1421410304                    0       0.0
 flops  13 x    4 x   13               1607830848                    0       0.0
 flops  13 x   13 x   32               1757383680                    0       0.0
 flops  32 x   32 x   32               2885681152                    0       0.0
 flops   5 x   32 x    5               5333708800                    0       0.0
 flops  13 x   32 x    5               6824796160                    0       0.0
 flops   5 x   32 x   13               6824796160                    0       0.0
 flops 184 x   32 x   32               8296333312                    0       0.0
 flops  32 x   32 x  184               8564637696                    0       0.0
 flops  13 x   32 x   13               8678412288                    0       0.0
 flops 184 x   32 x  184              15947530240                    0       0.0
 flops total                          77306825088                    0       0.0
 marketing flops                      88434440192
 -------------------------------------------------------------------------------

 -------------------------------------------------------------------------------
 ----                             MULTIGRID INFO                            ----
 -------------------------------------------------------------------------------
 count for grid        1:          38071          cutoff [a.u.]          200.00
 count for grid        2:          57438          cutoff [a.u.]           66.67
 count for grid        3:          57763          cutoff [a.u.]           22.22
 count for grid        4:          11599          cutoff [a.u.]            7.41
 total gridlevel count  :         164871

 -------------------------------------------------------------------------------
 -                                                                             -
 -                         MESSAGE PASSING PERFORMANCE                         -
 -                                                                             -
 -------------------------------------------------------------------------------

 ROUTINE             CALLS  TOT TIME [s]  AVE VOLUME [Bytes]  PERFORMANCE [MB/s]
 MP_Group                5         0.000
 MP_Bcast             3963         0.034              67508.             7960.25
 MP_Allreduce         8203         1.895                166.                0.72
 MP_Gather               4         0.001               1792.                7.82
 MP_Sync               196         2.394
 MP_Alltoall          8805         3.276             132040.              354.89
 MP_ISendRecv         3654         0.007              49479.            26386.05
 MP_Wait            205920         1.353
 MP_comm_split         144         0.021
 MP_ISend            91374         0.157              30223.            17593.68
 MP_IRecv            91374         0.106              30048.            25929.21
 MP_Recv                 7         0.000             376832.             6105.87
 MP_Memory           58868        12.557
 -------------------------------------------------------------------------------


 -------------------------------------------------------------------------------
 -                                                                             -
 -                           R E F E R E N C E S                               -
 -                                                                             -
 -------------------------------------------------------------------------------
 
 CP2K version 2.6, the CP2K developers group (2014).
 CP2K is freely available from http://www.cp2k.org/ .

 Borstnik, U; VandeVondele, J; Weber, V; Hutter, J. 
 PARALLEL COMPUTING, 40 (5-6), 47-58 (2014). 
 Sparse matrix multiplication: The distributed block-compressed sparse
 row library.
 http://dx.doi.org/10.1016/j.parco.2014.03.012


 Hutter, J; Iannuzzi, M; Schiffmann, F; VandeVondele, J. 
 WILEY INTERDISCIPLINARY REVIEWS-COMPUTATIONAL MOLECULAR SCIENCE, 4 (1), 15-25 (2014). 
 CP2K: atomistic simulations of condensed matter systems.
 http://dx.doi.org/10.1002/wcms.1159


 Grimme, S; Ehrlich, S; Goerigk, L. 
 JOURNAL OF COMPUTATIONAL CHEMISTRY, 32, 1456 (2011). 
 Effect of the damping function in dispersion corrected density functional theory.
 http://dx.doi.org/10.1002/jcc.21759


 Grimme, S; Antony, J; Ehrlich, S; Krieg, H. 
 JOURNAL OF CHEMICAL PHYSICS, 132 (15), 154104 (2010). 
 A consistent and accurate ab initio parametrization of density
 functional dispersion correction (DFT-D) for the 94 elements H-Pu.
 http://dx.doi.org/10.1063/1.3382344


 Guidon, M; Hutter, J; VandeVondele, J. 
 JOURNAL OF CHEMICAL THEORY AND COMPUTATION, 5 (11), 3010-3021 (2009). 
 Robust Periodic Hartree-Fock Exchange for Large-Scale Simulations Using
 Gaussian Basis Sets.
 http://dx.doi.org/10.1021/ct900494g


 Guidon, M; Schiffmann, F; Hutter, J; VandeVondele, J. 
 JOURNAL OF CHEMICAL PHYSICS, 128 (21), 214104 (2008). 
 Ab initio molecular dynamics using hybrid density functionals.
 http://dx.doi.org/10.1063/1.2931945


 Krack, M. 
 THEORETICAL CHEMISTRY ACCOUNTS, 114 (1-3), 145-152 (2005). 
 Pseudopotentials for H to Kr optimized for gradient-corrected
 exchange-correlation functionals.
 http://dx.doi.org/10.1007/s00214-005-0655-y


 VandeVondele, J; Krack, M; Mohamed, F; Parrinello, M; Chassaing, T;
 Hutter, J. COMPUTER PHYSICS COMMUNICATIONS, 167 (2), 103-128 (2005). 
 QUICKSTEP: Fast and accurate density functional calculations using a
 mixed Gaussian and plane waves approach.
 http://dx.doi.org/10.1016/j.cpc.2004.12.014


 Frigo, M; Johnson, SG. 
 PROCEEDINGS OF THE IEEE, 93 (2), 216-231 (2005). 
 The design and implementation of FFTW3.
 http://dx.doi.org/10.1109/JPROC.2004.840301


 VandeVondele, J; Hutter, J. 
 JOURNAL OF CHEMICAL PHYSICS, 118 (10), 4365-4369 (2003). 
 An efficient orbital transformation method for electronic structure
 calculations.
 http://dx.doi.org/10.1063/1.1543154


 Hartwigsen, C; Goedecker, S; Hutter, J. 
 PHYSICAL REVIEW B, 58 (7), 3641-3662 (1998). 
 Relativistic separable dual-space Gaussian pseudopotentials from H to Rn.
 http://dx.doi.org/10.1103/PhysRevB.58.3641


 Lippert, G; Hutter, J; Parrinello, M. 
 MOLECULAR PHYSICS, 92 (3), 477-487 (1997). 
 A hybrid Gaussian and plane wave density functional scheme.
 http://dx.doi.org/10.1080/002689797170220


 Perdew, JP; Burke, K; Ernzerhof, M. 
 PHYSICAL REVIEW LETTERS, 77 (18), 3865-3868 (1996). 
 Generalized gradient approximation made simple.
 http://dx.doi.org/10.1103/PhysRevLett.77.3865


 Goedecker, S; Teter, M; Hutter, J. 
 PHYSICAL REVIEW B, 54 (3), 1703-1710 (1996). 
 Separable dual-space Gaussian pseudopotentials.
 http://dx.doi.org/10.1103/PhysRevB.54.1703


 -------------------------------------------------------------------------------
 -                                                                             -
 -                                T I M I N G                                  -
 -                                                                             -
 -------------------------------------------------------------------------------
 SUBROUTINE                       CALLS  ASD         SELF TIME        TOTAL TIME
                                MAXIMUM       AVERAGE  MAXIMUM  AVERAGE  MAXIMUM
 CP2K                                 1  1.0    0.024    0.031   48.650   48.656
 qs_energies_scf                      1  2.0    0.000    0.000   48.396   48.396
 scf_env_do_scf                       1  3.0    0.000    0.000   27.479   27.479
 qs_ks_update_qs_env                 10  5.0    0.000    0.000   24.661   24.663
 rebuild_ks_matrix                    9  6.0    0.000    0.000   24.659   24.660
 qs_ks_build_kohn_sham_matrix         9  7.0    0.002    0.003   24.659   24.660
 hfx_ks_matrix                        9  8.0    0.000    0.000   22.578   22.579
 integrate_four_center                9  9.0    2.665    3.386   22.573   22.575
 dbcsr_mm_cannon_multiply          2515  8.0    1.180    1.438   20.239   20.507
 integrate_four_center_main           9 10.0    0.005    0.005   18.080   20.198
 integrate_four_center_bin          603 11.0   18.075   20.193   18.075   20.193
 scf_post_calculation_gpw             1  3.0    0.000    0.000   19.634   19.634
 make_lumo                            1  4.0    0.000    0.000   19.512   19.513
 ot_eigensolver                       1  5.0    0.009    0.011   19.498   19.499
 init_scf_loop                        1  4.0    0.000    0.000   16.038   16.038
 scf_env_do_scf_inner_loop            9  4.0    0.000    0.001   11.401   11.440
 ot_mini                            172  6.1    0.002    0.003   10.150   10.158
 cannon_multiply_low               2515  9.0    0.898    1.104    9.081    9.643
 qs_ot_get_derivative                91  7.1    0.002    0.003    9.072    9.092
 dbcsr_make_images                 5030  9.0    0.013    0.014    7.041    7.337
 make_images                       5030 10.0    0.180    0.219    7.028    7.325
 dbcsr_data_new                   86164 10.9    0.182    0.221    5.166    5.771
 internal_data_allocate           52361 12.0    4.987    5.566    4.987    5.566
 qs_ot_get_derivative_diag           67  8.0    0.005    0.006    5.175    5.189
 qs_ot_get_p                        178  6.1    0.002    0.002    4.427    4.579
 dbcsr_create_new                 37046  9.8    0.173    0.194    3.907    4.094
 dbcsr_data_release              154083 11.2    0.161    0.190    3.375    3.576
 internal_data_deallocate         52361 12.2    3.217    3.411    3.217    3.411
 setup_buffer_matrices             5030 10.0    1.760    1.876    2.697    2.947
 buffer_matrices_ensure_size       5030 10.0    2.103    2.780    2.103    2.780
 qs_ot_get_orbitals                 177  6.1    0.003    0.003    2.722    2.738
 dbcsr_destroy                    30823  9.2    0.088    0.100    2.449    2.621
 qs_ot_p2m_diag                     142  7.0    0.004    0.005    2.414    2.434
 fft_wrap_pw1pw2                    159  9.6    0.003    0.004    2.357    2.370
 fft_wrap_pw1pw2_200                102 10.7    0.071    0.088    2.239    2.248
 fft3d_ps                           159 11.6    0.334    0.434    2.201    2.223
 cannon_multiply_low_metrocomm1   20120 10.0    1.020    2.097    1.020    2.097
 dbcsr_make_images_dense           4284  9.3    0.072    0.091    1.646    1.787
 make_images_sizes                 5030 11.0    1.520    1.772    1.520    1.772
 qs_ot_get_derivative_taylor         24  8.4    0.002    0.002    1.587    1.589
 qs_scf_loop_do_ot                    9  5.0    0.000    0.000    1.565    1.566
 integrate_four_center_load           9 10.0    0.000    0.000    1.502    1.503
 hfx_load_balance                     1 11.0    0.001    0.001    1.502    1.503
 ot_scf_mini                          9  6.0    0.001    0.001    1.471    1.472
 yz_to_x                             57 12.4    1.392    1.443    1.392    1.443
 cannon_multiply_low_metrocomm3   20120 10.0    0.840    1.328    0.840    1.328
 dbcsr_special_finalize            5030 11.0    0.013    0.017    0.967    1.114
 qs_energies_init_hamiltonians        1  3.0    0.000    0.000    1.094    1.094
 dbcsr_switch_data_area           21002 10.9    0.030    0.034    0.948    1.083
 quick_finalize                    5706 11.8    0.023    0.030    0.942    1.082
 dbcsr_make_dense_low              6414 10.3    0.054    0.062    0.801    1.060
 hfx_load_balance_dist                1 12.0    0.533    1.059    0.533    1.059
 apply_preconditioner_dbcsr          97  7.2    0.000    0.000    1.021    1.059
 apply_single                        97  8.2    0.001    0.001    1.021    1.058
 qs_env_update_s_mstruct              1  4.0    0.000    0.000    1.048    1.048
 qs_vxc_create                        9  8.0    0.000    0.000    1.020    1.031
 xc_vxc_pw_create                     9  9.0    0.026    0.032    1.020    1.031
 calculate_rho_core                   1  5.0    0.006    0.015    1.025    1.025
 qs_rho_update_rho                   10  5.0    0.000    0.000    0.999    0.999
 calculate_rho_elec                  10  6.0    0.324    0.339    0.998    0.999
 -------------------------------------------------------------------------------

  **** **** ******  **  PROGRAM ENDED AT                 2015-03-10 12:09:41.220
 ***** ** ***  *** **   PROGRAM RAN ON                                      n272
 **    ****   ******    PROGRAM RAN BY                                     bja39
 ***** **    ** ** **   PROGRAM PROCESS ID                                 15396
  **** **  *******  **  PROGRAM STOPPED IN /home/dlambrecht/bja39/cp2k/hfx/hfx80
