 DBCSR| Multiplication driver                                                SMM
 DBCSR| Multrec recursion limit                                              512
 DBCSR| Multiplication stack size                                           1000
 DBCSR| Multiplication size stacks                                             3
 DBCSR| Use subcommunicators                                                   T
 DBCSR| Use MPI combined types                                                 F
 DBCSR| Use MPI memory allocation                                              T
 DBCSR| Use Communication thread                                               T
 DBCSR| Communication thread load                                             87


  **** **** ******  **  PROGRAM STARTED AT               2015-03-10 11:51:19.210
 ***** ** ***  *** **   PROGRAM STARTED ON                                  n268
 **    ****   ******    PROGRAM STARTED BY                                 bja39
 ***** **    ** ** **   PROGRAM PROCESS ID                                 82151
  **** **  *******  **  PROGRAM STARTED IN /home/dlambrecht/bja39/cp2k/hfx/hfx15

 CP2K| version string:                                          CP2K version 2.6
 CP2K| source code revision number:                                  git:9520686
 CP2K| is freely available from                             http://www.cp2k.org/
 CP2K| Program compiled at                          Fri Feb 27 09:44:54 EST 2015
 CP2K| Program compiled on                            login0a.frank.sam.pitt.edu
 CP2K| Program compiled for                                                Frank
 CP2K| Input file name                                                 hfx15.inp
 
 GLOBAL| Force Environment number                                              1
 GLOBAL| Basis set file name                                           HFX_BASIS
 GLOBAL| Geminal file name                                         BASIS_GEMINAL
 GLOBAL| Potential file name                                      GTH_POTENTIALS
 GLOBAL| MM Potential file name                                     MM_POTENTIAL
 GLOBAL| Coordinate file name                                          water.xyz
 GLOBAL| Method name                                                        CP2K
 GLOBAL| Project name                                                      WATER
 GLOBAL| Preferred FFT library                                             FFTW3
 GLOBAL| Preferred diagonalization lib.                                       SL
 GLOBAL| Run type                                                         ENERGY
 GLOBAL| All-to-all communication in single precision                          F
 GLOBAL| FFTs using library dependent lengths                                  F
 GLOBAL| Global print level                                               MEDIUM
 GLOBAL| Total number of message passing processes                            64
 GLOBAL| Number of threads for this process                                    1
 GLOBAL| This output is from process                                           0

 MEMORY| system memory details [Kb]
 MEMORY|                        rank 0           min           max       average
 MEMORY| MemTotal             32978168      32978168      32989296      32980990
 MEMORY| MemFree               6922832       5651152      11014500       8462529
 MEMORY| Buffers                194396        192704        205420        199163
 MEMORY| Cached               20901724      17131392      20901724      19088175
 MEMORY| Slab                  3595072       3293956       4953028       3876240
 MEMORY| SReclaimable          3176964       2894420       4472232       3447043
 MEMORY| MemLikelyFree        31195916      31138132      31244444      31196910


 *** Fundamental physical constants (SI units) ***

 *** Literature: B. J. Mohr and B. N. Taylor,
 ***             CODATA recommended values of the fundamental physical
 ***             constants: 2006, Web Version 5.1
 ***             http://physics.nist.gov/constants

 Speed of light in vacuum [m/s]                             2.99792458000000E+08
 Magnetic constant or permeability of vacuum [N/A**2]       1.25663706143592E-06
 Electric constant or permittivity of vacuum [F/m]          8.85418781762039E-12
 Planck constant (h) [J*s]                                  6.62606896000000E-34
 Planck constant (h-bar) [J*s]                              1.05457162825177E-34
 Elementary charge [C]                                      1.60217648700000E-19
 Electron mass [kg]                                         9.10938215000000E-31
 Electron g factor [ ]                                     -2.00231930436220E+00
 Proton mass [kg]                                           1.67262163700000E-27
 Fine-structure constant                                    7.29735253760000E-03
 Rydberg constant [1/m]                                     1.09737315685270E+07
 Avogadro constant [1/mol]                                  6.02214179000000E+23
 Boltzmann constant [J/K]                                   1.38065040000000E-23
 Atomic mass unit [kg]                                      1.66053878200000E-27
 Bohr radius [m]                                            5.29177208590000E-11

 *** Conversion factors ***

 [u] -> [a.u.]                                              1.82288848426455E+03
 [Angstrom] -> [Bohr] = [a.u.]                              1.88972613288564E+00
 [a.u.] = [Bohr] -> [Angstrom]                              5.29177208590000E-01
 [a.u.] -> [s]                                              2.41888432650478E-17
 [a.u.] -> [fs]                                             2.41888432650478E-02
 [a.u.] -> [J]                                              4.35974393937059E-18
 [a.u.] -> [N]                                              8.23872205491840E-08
 [a.u.] -> [K]                                              3.15774647902944E+05
 [a.u.] -> [kJ/mol]                                         2.62549961709828E+03
 [a.u.] -> [kcal/mol]                                       6.27509468713739E+02
 [a.u.] -> [Pa]                                             2.94210107994716E+13
 [a.u.] -> [bar]                                            2.94210107994716E+08
 [a.u.] -> [atm]                                            2.90362800883016E+08
 [a.u.] -> [eV]                                             2.72113838565563E+01
 [a.u.] -> [Hz]                                             6.57968392072181E+15
 [a.u.] -> [1/cm] (wave numbers)                            2.19474631370540E+05
 [a.u./Bohr**2] -> [1/cm]                                   5.14048714338585E+03
 

 CELL_TOP| Volume [angstrom^3]:                                         1915.864
 CELL_TOP| Vector a [angstrom    12.420     0.000     0.000    |a| =      12.420
 CELL_TOP| Vector b [angstrom     0.000    12.420     0.000    |b| =      12.420
 CELL_TOP| Vector c [angstrom     0.000     0.000    12.420    |c| =      12.420
 CELL_TOP| Angle (b,c), alpha [degree]:                                   90.000
 CELL_TOP| Angle (a,c), beta  [degree]:                                   90.000
 CELL_TOP| Angle (a,b), gamma [degree]:                                   90.000
 CELL_TOP| Numerically orthorhombic:                                         YES
 
 GENERATE|  Preliminary Number of Bonds generated:                             0
 GENERATE|  Achieved consistency in connectivity generation.

 CELL| Volume [angstrom^3]:                                             1915.864
 CELL| Vector a [angstrom]:      12.420     0.000     0.000    |a| =      12.420
 CELL| Vector b [angstrom]:       0.000    12.420     0.000    |b| =      12.420
 CELL| Vector c [angstrom]:       0.000     0.000    12.420    |c| =      12.420
 CELL| Angle (b,c), alpha [degree]:                                       90.000
 CELL| Angle (a,c), beta  [degree]:                                       90.000
 CELL| Angle (a,b), gamma [degree]:                                       90.000
 CELL| Numerically orthorhombic:                                             YES

 CELL_REF| Volume [angstrom^3]:                                         1915.864
 CELL_REF| Vector a [angstrom    12.420     0.000     0.000    |a| =      12.420
 CELL_REF| Vector b [angstrom     0.000    12.420     0.000    |b| =      12.420
 CELL_REF| Vector c [angstrom     0.000     0.000    12.420    |c| =      12.420
 CELL_REF| Angle (b,c), alpha [degree]:                                   90.000
 CELL_REF| Angle (a,c), beta  [degree]:                                   90.000
 CELL_REF| Angle (a,b), gamma [degree]:                                   90.000
 CELL_REF| Numerically orthorhombic:                                         YES

 *******************************************************************************
 *******************************************************************************
 **                                                                           **
 **     #####                         ##              ##                      **
 **    ##   ##            ##          ##              ##                      **
 **   ##     ##                       ##            ######                    **
 **   ##     ##  ##   ##  ##   #####  ##  ##   ####   ##    #####    #####    **
 **   ##     ##  ##   ##  ##  ##      ## ##   ##      ##   ##   ##  ##   ##   **
 **   ##  ## ##  ##   ##  ##  ##      ####     ###    ##   ######   ######    **
 **    ##  ###   ##   ##  ##  ##      ## ##      ##   ##   ##       ##        **
 **     #######   #####   ##   #####  ##  ##  ####    ##    #####   ##        **
 **           ##                                                    ##        **
 **                                                                           **
 **                                                ... make the atoms dance   **
 **                                                                           **
 **            Copyright (C) by CP2K Developers Group (2000 - 2014)           **
 **                                                                           **
 *******************************************************************************

 DFT| Spin restricted Kohn-Sham (RKS) calculation                            RKS
 DFT| Multiplicity                                                             1
 DFT| Number of spin states                                                    1
 DFT| Charge                                                                   0
 DFT| Self-interaction correction (SIC)                                       NO
 DFT| Cutoffs: density                                              1.000000E-10
 DFT|          gradient                                             1.000000E-10
 DFT|          tau                                                  1.000000E-10
 DFT|          cutoff_smoothing_range                               0.000000E+00
 DFT| XC density smoothing                                                  NONE
 DFT| XC derivatives                                                          PW
 FUNCTIONAL| ROUTINE=NEW
 FUNCTIONAL| PBE:
 FUNCTIONAL| J.P.Perdew, K.Burke, M.Ernzerhof, Phys. Rev. Letter, vol. 77, n 18,
 FUNCTIONAL|  pp. 3865-3868, (1996)sx=0.850sc=1.000{spin unpolarized}
 vdW POTENTIAL|                                                   Pair Potential
 vdW POTENTIAL|          DFT-D3 (Version 3.1)
 vdW POTENTIAL|          Potential Form: S. Grimme et al, JCP 132: 154104 (2010)
 vdW POTENTIAL|          Zero Damping
 vdW POTENTIAL|          Cutoff Radius [Bohr]:                             30.24
 vdW POTENTIAL|          s6 Scaling Factor:                               1.0000
 vdW POTENTIAL|          sr6 Scaling Factor:                              1.2870
 vdW POTENTIAL|          s8 Scaling Factor:                               0.9280
 vdW POTENTIAL|          Cutoff for CN calculation:                   0.1000E-05

 QS| Method:                                                                 GPW
 QS| Density plane wave grid type                        NON-SPHERICAL FULLSPACE
 QS| Number of grid levels:                                                    4
 QS| Density cutoff [a.u.]:                                                200.0
 QS| Multi grid cutoff [a.u.]: 1) grid level                               200.0
 QS|                           2) grid level                                66.7
 QS|                           3) grid level                                22.2
 QS|                           4) grid level                                 7.4
 QS| Grid level progression factor:                                          3.0
 QS| Relative density cutoff [a.u.]:                                        20.0
 QS| Consistent realspace mapping and integration 
 QS| Interaction thresholds: eps_pgf_orb:                                1.0E-05
 QS|                         eps_filter_matrix:                          0.0E+00
 QS|                         eps_core_charge:                            1.0E-12
 QS|                         eps_rho_gspace:                             1.0E-10
 QS|                         eps_rho_rspace:                             1.0E-10
 QS|                         eps_gvg_rspace:                             1.0E-05
 QS|                         eps_ppl:                                    1.0E-02
 QS|                         eps_ppnl:                                   1.0E-07


 ATOMIC KIND INFORMATION

  1. Atomic kind: O                                     Number of atoms:      64

     Orbital Basis Set                                                  DZVP-GTH

       Number of orbital shell sets:                                           3
       Number of orbital shells:                                               5
       Number of primitive Cartesian functions:                                5
       Number of Cartesian basis functions:                                   14
       Number of spherical basis functions:                                   13
       Norm type:                                                              2

       Normalised Cartesian orbitals:

                        Set   Shell   Orbital            Exponent    Coefficient

                          1       1    2s                8.304386       0.778600
                                                         2.457948      -0.081348
                                                         0.759737      -0.597925

                          1       2    3px               8.304386      -2.634104
                                                         2.457948      -1.739269
                                                         0.759737      -0.632383
                          1       2    3py               8.304386      -2.634104
                                                         2.457948      -1.739269
                                                         0.759737      -0.632383
                          1       2    3pz               8.304386      -2.634104
                                                         2.457948      -1.739269
                                                         0.759737      -0.632383

                          2       1    2s                0.213639       0.223960

                          2       2    3px               0.213639       0.207033
                          2       2    3py               0.213639       0.207033
                          2       2    3pz               0.213639       0.207033

                          3       1    3dx2              1.185000       2.215218
                          3       1    3dxy              1.185000       3.836871
                          3       1    3dxz              1.185000       3.836871
                          3       1    3dy2              1.185000       2.215218
                          3       1    3dyz              1.185000       3.836871
                          3       1    3dz2              1.185000       2.215218

     Potential information for                                        GTH-PBE-q6

       Description:                       Goedecker-Teter-Hutter pseudopotential
                                           Goedecker et al., PRB 54, 1703 (1996)
                                          Hartwigsen et al., PRB 58, 3641 (1998)
                                                      Krack, TCA 114, 145 (2005)

       Gaussian exponent of the core charge distribution:               8.360253
       Electronic configuration (s p d ...):                               2   4

       Parameters of the local part of the GTH pseudopotential:

                          rloc        C1          C2          C3          C4
                        0.244554  -16.667215    2.487311

       Parameters of the non-local part of the GTH pseudopotential:

                   l      r(l)      h(i,j,l)

                   0    0.220956   18.337458
                   1    0.211332

  2. Atomic kind: H                                     Number of atoms:     128

     Orbital Basis Set                                                  DZVP-GTH

       Number of orbital shell sets:                                           3
       Number of orbital shells:                                               3
       Number of primitive Cartesian functions:                                5
       Number of Cartesian basis functions:                                    5
       Number of spherical basis functions:                                    5
       Norm type:                                                              2

       Normalised Cartesian orbitals:

                        Set   Shell   Orbital            Exponent    Coefficient

                          1       1    1s                8.374435      -0.191705
                                                         1.805868      -0.285532
                                                         0.485253      -0.319237

                          2       1    1s                0.165824       0.185202

                          3       1    2px               0.727000       0.956881
                          3       1    2py               0.727000       0.956881
                          3       1    2pz               0.727000       0.956881

     Potential information for                                        GTH-PBE-q1

       Description:                       Goedecker-Teter-Hutter pseudopotential
                                           Goedecker et al., PRB 54, 1703 (1996)
                                          Hartwigsen et al., PRB 58, 3641 (1998)
                                                      Krack, TCA 114, 145 (2005)

       Gaussian exponent of the core charge distribution:              12.500000
       Electronic configuration (s p d ...):                                   1

       Parameters of the local part of the GTH pseudopotential:

                          rloc        C1          C2          C3          C4
                        0.200000   -4.178900    0.724463


 MOLECULE KIND INFORMATION


 All atoms are their own molecule, skipping detailed information


 TOTAL NUMBERS AND MAXIMUM NUMBERS

  Total number of            - Atomic kinds:                                   2
                             - Atoms:                                        192
                             - Shell sets:                                   576
                             - Shells:                                       704
                             - Primitive Cartesian functions:                960
                             - Cartesian basis functions:                   1536
                             - Spherical basis functions:                   1472

  Maximum angular momentum of- Orbital basis functions:                        2
                             - Local part of the GTH pseudopotential:          2
                             - Non-local part of the GTH pseudopotential:      0


 MODULE QUICKSTEP:  ATOMIC COORDINATES IN angstrom

  Atom  Kind  Element       X           Y           Z          Z(eff)       Mass

       1     1 O    8    3.858587   -4.753318    5.509197      6.00      15.9994
       2     2 H    1    4.210995   -5.556871    5.999459      1.00       1.0079
       3     2 H    1    3.094708   -4.317266    5.913595      1.00       1.0079
       4     1 O    8   -3.546076    1.745624    4.288021      6.00      15.9994
       5     2 H    1   -3.357258    0.836994    4.152946      1.00       1.0079
       6     2 H    1   -3.608914    1.943698    5.269839      1.00       1.0079
       7     1 O    8    4.569136    2.934327   -7.099972      6.00      15.9994
       8     2 H    1    3.678596    3.229107   -6.804983      1.00       1.0079
       9     2 H    1    4.495367    2.784591   -8.045803      1.00       1.0079
      10     1 O    8   -2.573180   -0.106310   -3.414714      6.00      15.9994
      11     2 H    1   -2.038669    0.415523   -2.828965      1.00       1.0079
      12     2 H    1   -1.889161   -0.614820   -3.928063      1.00       1.0079
      13     1 O    8   -3.762503   -7.710594    5.627998      6.00      15.9994
      14     2 H    1   -4.634354   -7.419980    5.987479      1.00       1.0079
      15     2 H    1   -3.852063   -7.634849    4.660781      1.00       1.0079
      16     1 O    8   -6.713126   -0.075920    2.317684      6.00      15.9994
      17     2 H    1   -6.041585   -0.456040    3.007998      1.00       1.0079
      18     2 H    1   -6.258264    0.734307    1.958295      1.00       1.0079
      19     1 O    8    4.010954   -5.581769   -0.412691      6.00      15.9994
      20     2 H    1    3.332131   -5.616691    0.307694      1.00       1.0079
      21     2 H    1    3.905154   -4.753344   -0.836952      1.00       1.0079
      22     1 O    8   -2.669263   -3.081051   -1.225935      6.00      15.9994
      23     2 H    1   -3.248632   -2.449171   -1.738693      1.00       1.0079
      24     2 H    1   -2.191896   -2.598852   -0.576307      1.00       1.0079
      25     1 O    8    5.457624   -3.168804    3.100260      6.00      15.9994
      26     2 H    1    4.685499   -3.245800    3.622418      1.00       1.0079
      27     2 H    1    5.257937   -3.050750    2.131140      1.00       1.0079
      28     1 O    8    2.007879    3.802589   -6.644120      6.00      15.9994
      29     2 H    1    1.380904    3.070273   -6.803869      1.00       1.0079
      30     2 H    1    1.836607    4.066629   -5.709998      1.00       1.0079
      31     1 O    8    4.060883   -3.892921   -3.059677      6.00      15.9994
      32     2 H    1    3.233271   -3.720667   -3.695376      1.00       1.0079
      33     2 H    1    4.336690   -2.982510   -2.984822      1.00       1.0079
      34     1 O    8    1.977359   -1.844229    1.022567      6.00      15.9994
      35     2 H    1    1.565064   -2.471360    1.649594      1.00       1.0079
      36     2 H    1    1.619481   -1.913312    0.065695      1.00       1.0079
      37     1 O    8    0.733845   -5.743288   -5.010069      6.00      15.9994
      38     2 H    1    1.479577   -6.329923   -4.818933      1.00       1.0079
      39     2 H    1    0.449115   -5.709569   -5.947356      1.00       1.0079
      40     1 O    8   -7.516646   -8.678106   -3.237157      6.00      15.9994
      41     2 H    1   -7.873766   -9.602722   -3.081415      1.00       1.0079
      42     2 H    1   -7.132394   -8.578896   -2.346766      1.00       1.0079
      43     1 O    8    3.008996   -1.620693    5.170452      6.00      15.9994
      44     2 H    1    3.854786   -1.802286    5.686635      1.00       1.0079
      45     2 H    1    3.170083   -0.818538    4.610243      1.00       1.0079
      46     1 O    8   -0.094349    1.863471   -6.686135      6.00      15.9994
      47     2 H    1    0.238983    1.055233   -6.317038      1.00       1.0079
      48     2 H    1   -0.053460    1.737047   -7.652783      1.00       1.0079
      49     1 O    8    1.380300   -3.081547    3.659847      6.00      15.9994
      50     2 H    1    2.005275   -2.679362    4.316923      1.00       1.0079
      51     2 H    1    1.097394   -3.966638    3.981340      1.00       1.0079
      52     1 O    8   -2.327913    2.806079    2.234742      6.00      15.9994
      53     2 H    1   -1.623045    2.131523    2.186616      1.00       1.0079
      54     2 H    1   -2.760923    2.581957    3.088951      1.00       1.0079
      55     1 O    8    0.874513   -0.661119   -5.600405      6.00      15.9994
      56     2 H    1    1.720402   -0.818966   -6.109861      1.00       1.0079
      57     2 H    1    1.196412   -0.240506   -4.754906      1.00       1.0079
      58     1 O    8   -1.186646   -0.716403    0.243785      6.00      15.9994
      59     2 H    1   -1.134001    0.232571   -0.072616      1.00       1.0079
      60     2 H    1   -0.933544   -0.785478    1.201134      1.00       1.0079
      61     1 O    8   -3.886194   -9.012929   -3.131857      6.00      15.9994
      62     2 H    1   -4.498349   -8.280126   -3.216022      1.00       1.0079
      63     2 H    1   -2.918386   -8.730140   -3.122451      1.00       1.0079
      64     1 O    8    4.978441    4.557411    2.160598      6.00      15.9994
      65     2 H    1    4.574251    4.069025    1.437504      1.00       1.0079
      66     2 H    1    4.210678    4.907944    2.673609      1.00       1.0079
      67     1 O    8    4.207481    1.029475   -3.213494      6.00      15.9994
      68     2 H    1    4.625087    0.852431   -4.064867      1.00       1.0079
      69     2 H    1    4.422152    0.192039   -2.736436      1.00       1.0079
      70     1 O    8   -5.210635   -6.346370   -2.680646      6.00      15.9994
      71     2 H    1   -5.380163   -6.086183   -1.773761      1.00       1.0079
      72     2 H    1   -5.998555   -6.089431   -3.152188      1.00       1.0079
      73     1 O    8    4.827201   -2.149309    0.695756      6.00      15.9994
      74     2 H    1    5.169811   -1.384311    1.168073      1.00       1.0079
      75     2 H    1    3.873140   -2.015277    0.790152      1.00       1.0079
      76     1 O    8    2.108497    0.940656    1.696470      6.00      15.9994
      77     2 H    1    2.763570    1.510652    1.258248      1.00       1.0079
      78     2 H    1    2.313842    0.079150    1.294322      1.00       1.0079
      79     1 O    8   -5.757905   -5.093599   -0.361373      6.00      15.9994
      80     2 H    1   -6.692202   -5.443891   -0.243446      1.00       1.0079
      81     2 H    1   -5.933954   -4.185226   -0.689323      1.00       1.0079
      82     1 O    8   -4.850118    4.634751    2.632366      6.00      15.9994
      83     2 H    1   -5.818692    4.729150    2.364808      1.00       1.0079
      84     2 H    1   -4.768696    3.668506    2.248911      1.00       1.0079
      85     1 O    8    5.512389    0.852383   -5.592791      6.00      15.9994
      86     2 H    1    6.400927    1.196167   -5.345498      1.00       1.0079
      87     2 H    1    5.032627    1.457110   -6.282087      1.00       1.0079
      88     1 O    8    0.736518   -1.917695   -1.272458      6.00      15.9994
      89     2 H    1    0.436663   -2.668596   -1.845250      1.00       1.0079
      90     2 H    1   -0.028072   -1.634696   -0.732364      1.00       1.0079
      91     1 O    8    3.900594    2.622197    0.082498      6.00      15.9994
      92     2 H    1    4.660363    2.413641   -0.488502      1.00       1.0079
      93     2 H    1    3.361931    3.246591   -0.459951      1.00       1.0079
      94     1 O    8   -1.099162   -1.369341    2.949888      6.00      15.9994
      95     2 H    1   -0.335406   -2.036901    3.107502      1.00       1.0079
      96     2 H    1   -1.847346   -1.991636    3.203214      1.00       1.0079
      97     1 O    8    2.071845   -5.650168    1.362908      6.00      15.9994
      98     2 H    1    1.204362   -6.136982    1.256069      1.00       1.0079
      99     2 H    1    2.450750   -5.885909    2.255821      1.00       1.0079
     100     1 O    8   -0.628031   -3.827349   -2.846086      6.00      15.9994
     101     2 H    1   -1.558364   -3.776964   -2.581114      1.00       1.0079
     102     2 H    1   -0.511229   -4.587952   -3.398223      1.00       1.0079
     103     1 O    8   -5.291843    2.062167    1.435301      6.00      15.9994
     104     2 H    1   -4.454945    1.877605    1.901455      1.00       1.0079
     105     2 H    1   -5.133594    1.919821    0.419723      1.00       1.0079
     106     1 O    8    1.959972   -3.424563   -5.267360      6.00      15.9994
     107     2 H    1    1.322556   -4.212309   -5.038883      1.00       1.0079
     108     2 H    1    1.299929   -2.771147   -5.498678      1.00       1.0079
     109     1 O    8   -1.193321    3.936851   -3.373747      6.00      15.9994
     110     2 H    1   -1.200301    3.980365   -4.358294      1.00       1.0079
     111     2 H    1   -0.740251    4.650096   -2.940559      1.00       1.0079
     112     1 O    8   -5.424398   -5.002981    4.278463      6.00      15.9994
     113     2 H    1   -6.116403   -4.512700    3.781732      1.00       1.0079
     114     2 H    1   -4.740320   -5.349861    3.692094      1.00       1.0079
     115     1 O    8    2.973298    5.793755    3.604183      6.00      15.9994
     116     2 H    1    3.417671    6.472671    4.169501      1.00       1.0079
     117     2 H    1    2.448520    5.204109    4.225087      1.00       1.0079
     118     1 O    8   -4.051130    1.544593   -5.062650      6.00      15.9994
     119     2 H    1   -3.538710    0.797484   -4.621055      1.00       1.0079
     120     2 H    1   -4.033382    2.351849   -4.430137      1.00       1.0079
     121     1 O    8    3.484773    0.599769    4.009149      6.00      15.9994
     122     2 H    1    2.789650    0.537511    3.268667      1.00       1.0079
     123     2 H    1    4.318998    0.415332    3.439528      1.00       1.0079
     124     1 O    8   -4.620748   -1.011762    4.004895      6.00      15.9994
     125     2 H    1   -5.347759   -1.244306    4.625324      1.00       1.0079
     126     2 H    1   -4.216388   -1.884479    3.842806      1.00       1.0079
     127     1 O    8   -0.216539    1.275147    3.116717      6.00      15.9994
     128     2 H    1    0.637178    1.413680    2.728697      1.00       1.0079
     129     2 H    1   -0.389412    0.322584    3.050879      1.00       1.0079
     130     1 O    8   -1.991535    5.069708    0.600019      6.00      15.9994
     131     2 H    1   -2.337650    4.234088    1.001390      1.00       1.0079
     132     2 H    1   -2.652025    5.747116    0.850662      1.00       1.0079
     133     1 O    8   -1.307547   -1.895612   -4.954292      6.00      15.9994
     134     2 H    1   -0.870125   -2.402819   -4.256374      1.00       1.0079
     135     2 H    1   -0.594969   -1.353212   -5.453243      1.00       1.0079
     136     1 O    8   -5.137345    1.806207   -1.286768      6.00      15.9994
     137     2 H    1   -4.698159    2.459748   -1.850567      1.00       1.0079
     138     2 H    1   -5.424553    1.125693   -1.863395      1.00       1.0079
     139     1 O    8   -7.383656   -1.211987   -1.950660      6.00      15.9994
     140     2 H    1   -6.421288   -1.037143   -2.146380      1.00       1.0079
     141     2 H    1   -7.480878   -1.531048   -1.033948      1.00       1.0079
     142     1 O    8   -0.463945    1.404847   -1.722864      6.00      15.9994
     143     2 H    1   -0.786735    2.186650   -2.196230      1.00       1.0079
     144     2 H    1    0.274393    0.986416   -2.221585      1.00       1.0079
     145     1 O    8   -0.029811   -6.521092   -1.093364      6.00      15.9994
     146     2 H    1    0.002142   -5.531145   -1.122665      1.00       1.0079
     147     2 H    1   -0.803113   -6.743514   -0.464856      1.00       1.0079
     148     1 O    8    5.709094   -1.692709    6.018549      6.00      15.9994
     149     2 H    1    6.022772   -2.510238    6.419541      1.00       1.0079
     150     2 H    1    5.679350   -0.901240    6.652196      1.00       1.0079
     151     1 O    8   -2.596298   -5.768397   -4.219577      6.00      15.9994
     152     2 H    1   -2.604903   -6.707767   -4.472834      1.00       1.0079
     153     2 H    1   -3.435454   -5.564584   -3.848351      1.00       1.0079
     154     1 O    8   -4.944969   -1.408672   -3.247339      6.00      15.9994
     155     2 H    1   -4.891302   -2.221732   -3.767422      1.00       1.0079
     156     2 H    1   -3.968955   -1.096486   -3.234198      1.00       1.0079
     157     1 O    8    2.298375   -8.080949   -1.213241      6.00      15.9994
     158     2 H    1    1.300368   -8.063628   -1.114392      1.00       1.0079
     159     2 H    1    2.516194   -7.105367   -1.176852      1.00       1.0079
     160     1 O    8    6.775436   -3.896533   -5.335926      6.00      15.9994
     161     2 H    1    7.549942   -4.100300   -5.821362      1.00       1.0079
     162     2 H    1    6.043016   -4.432815   -5.647961      1.00       1.0079
     163     1 O    8   -0.342484    4.965811    2.950829      6.00      15.9994
     164     2 H    1   -0.641824    4.167256    3.471638      1.00       1.0079
     165     2 H    1   -0.675974    4.869938    2.055138      1.00       1.0079
     166     1 O    8   -2.805629   -4.004823    6.223906      6.00      15.9994
     167     2 H    1   -2.385060   -4.632289    6.845556      1.00       1.0079
     168     2 H    1   -2.379735   -3.149823    6.433016      1.00       1.0079
     169     1 O    8   -2.792511   -3.473224    3.461233      6.00      15.9994
     170     2 H    1   -3.112954   -3.862064    4.274613      1.00       1.0079
     171     2 H    1   -3.285609   -4.027145    2.827441      1.00       1.0079
     172     1 O    8    2.486771    4.680362   -3.951121      6.00      15.9994
     173     2 H    1    3.397137    4.508164   -3.629816      1.00       1.0079
     174     2 H    1    1.979071    4.624068   -3.115244      1.00       1.0079
     175     1 O    8    1.659077    0.052314   -3.106919      6.00      15.9994
     176     2 H    1    1.511356   -0.599677   -2.356369      1.00       1.0079
     177     2 H    1    2.506872    0.526419   -3.066152      1.00       1.0079
     178     1 O    8   -1.202305   -8.160348   -6.367070      6.00      15.9994
     179     2 H    1   -0.905516   -9.069055   -6.570527      1.00       1.0079
     180     2 H    1   -2.179810   -8.074002   -6.546491      1.00       1.0079
     181     1 O    8   -0.476107    8.385162    0.598747      6.00      15.9994
     182     2 H    1    0.363244    8.309655    1.105835      1.00       1.0079
     183     2 H    1   -1.285239    8.075385    1.058726      1.00       1.0079
     184     1 O    8    5.906545   -6.798977   -6.600440      6.00      15.9994
     185     2 H    1    5.413015   -7.623317   -6.913788      1.00       1.0079
     186     2 H    1    6.217751   -6.234454   -7.319872      1.00       1.0079
     187     1 O    8   -0.359433   -5.262244    4.670430      6.00      15.9994
     188     2 H    1   -0.415613   -6.098882    4.136748      1.00       1.0079
     189     2 H    1   -1.293113   -5.154797    4.949758      1.00       1.0079
     190     1 O    8   -3.827313   -5.527924    1.763366      6.00      15.9994
     191     2 H    1   -4.138854   -6.362200    2.151380      1.00       1.0079
     192     2 H    1   -4.395567   -5.321694    1.040595      1.00       1.0079




 SCF PARAMETERS         Density guess:                                   RESTART
                        --------------------------------------------------------
                        max_scf:                                              30
                        max_scf_history:                                       0
                        max_diis:                                              4
                        --------------------------------------------------------
                        eps_scf:                                        1.00E-06
                        eps_scf_history:                                0.00E+00
                        eps_diis:                                       1.00E-01
                        eps_eigval:                                     1.00E-05
                        --------------------------------------------------------
                        level_shift [a.u.]:                                 0.00
                        --------------------------------------------------------
                        Outer loop SCF in use 
                        No variables optimised in outer loop
                        eps_scf                                         1.00E-06
                        max_scf                                               10
                        No outer loop optimization
                        step_size                                       5.00E-01

 PW_GRID| Information for grid number                                          1
 PW_GRID| Grid distributed over                                    64 processors
 PW_GRID| Real space group dimensions                                    64    1
 PW_GRID| the grid is blocked:                                                NO
 PW_GRID| Cutoff [a.u.]                                                    200.0
 PW_GRID| spherical cutoff:                                                   NO
 PW_GRID|   Bounds   1            -75      74                Points:         150
 PW_GRID|   Bounds   2            -75      74                Points:         150
 PW_GRID|   Bounds   3            -75      74                Points:         150
 PW_GRID| Volume element (a.u.^3)  0.3831E-02     Volume (a.u.^3)     12928.8946
 PW_GRID| Grid span                                                    FULLSPACE
 PW_GRID|   Distribution                         Average         Max         Min
 PW_GRID|   G-Vectors                            52734.4       52800       52650
 PW_GRID|   G-Rays                                 351.6         352         351
 PW_GRID|   Real Space Points                    52734.4       67500       45000

 PW_GRID| Information for grid number                                          2
 PW_GRID| Grid distributed over                                    64 processors
 PW_GRID| Real space group dimensions                                    64    1
 PW_GRID| the grid is blocked:                                                NO
 PW_GRID| Cutoff [a.u.]                                                     66.7
 PW_GRID| spherical cutoff:                                                   NO
 PW_GRID|   Bounds   1            -45      44                Points:          90
 PW_GRID|   Bounds   2            -45      44                Points:          90
 PW_GRID|   Bounds   3            -45      44                Points:          90
 PW_GRID| Volume element (a.u.^3)  0.1774E-01     Volume (a.u.^3)     12928.8946
 PW_GRID| Grid span                                                    FULLSPACE
 PW_GRID|   Distribution                         Average         Max         Min
 PW_GRID|   G-Vectors                            11390.6       11430       11340
 PW_GRID|   G-Rays                                 126.6         127         126
 PW_GRID|   Real Space Points                    11390.6       16200        8100

 PW_GRID| Information for grid number                                          3
 PW_GRID| Grid distributed over                                    64 processors
 PW_GRID| Real space group dimensions                                     8    8
 PW_GRID| the grid is blocked:                                                NO
 PW_GRID| Cutoff [a.u.]                                                     22.2
 PW_GRID| spherical cutoff:                                                   NO
 PW_GRID|   Bounds   1            -27      26                Points:          54
 PW_GRID|   Bounds   2            -27      26                Points:          54
 PW_GRID|   Bounds   3            -27      26                Points:          54
 PW_GRID| Volume element (a.u.^3)  0.8211E-01     Volume (a.u.^3)     12928.8946
 PW_GRID| Grid span                                                    FULLSPACE
 PW_GRID|   Distribution                         Average         Max         Min
 PW_GRID|   G-Vectors                             2460.4        2592        2322
 PW_GRID|   G-Rays                                  45.6          48          43
 PW_GRID|   Real Space Points                     2460.4        2646        1944

 PW_GRID| Information for grid number                                          4
 PW_GRID| Grid distributed over                                    64 processors
 PW_GRID| Real space group dimensions                                     8    8
 PW_GRID| the grid is blocked:                                                NO
 PW_GRID| Cutoff [a.u.]                                                      7.4
 PW_GRID| spherical cutoff:                                                   NO
 PW_GRID|   Bounds   1            -15      14                Points:          30
 PW_GRID|   Bounds   2            -15      14                Points:          30
 PW_GRID|   Bounds   3            -15      14                Points:          30
 PW_GRID| Volume element (a.u.^3)  0.4788         Volume (a.u.^3)     12928.8946
 PW_GRID| Grid span                                                    FULLSPACE
 PW_GRID|   Distribution                         Average         Max         Min
 PW_GRID|   G-Vectors                              421.9         480         390
 PW_GRID|   G-Rays                                  14.1          16          13
 PW_GRID|   Real Space Points                      421.9         480         270

 POISSON| Solver                                                        PERIODIC
 POISSON| Periodicity                                                        XYZ

 RS_GRID| Information for grid number                                          1
 RS_GRID|   Bounds   1            -75      74                Points:         150
 RS_GRID|   Bounds   2            -75      74                Points:         150
 RS_GRID|   Bounds   3            -75      74                Points:         150
 RS_GRID| Real space distribution over                                  4 groups
 RS_GRID| Real space distribution along direction                              1
 RS_GRID| Border size                                                         19
 RS_GRID| Real space distribution over                                  4 groups
 RS_GRID| Real space distribution along direction                              2
 RS_GRID| Border size                                                         19
 RS_GRID| Real space distribution over                                  4 groups
 RS_GRID| Real space distribution along direction                              3
 RS_GRID| Border size                                                         19
 RS_GRID|   Distribution                         Average         Max         Min
 RS_GRID|   Planes                                  75.5          76          75
 RS_GRID|   Distribution                         Average         Max         Min
 RS_GRID|   Planes                                  75.5          76          75
 RS_GRID|   Distribution                         Average         Max         Min
 RS_GRID|   Planes                                  75.5          76          75

 RS_GRID| Information for grid number                                          2
 RS_GRID|   Bounds   1            -45      44                Points:          90
 RS_GRID|   Bounds   2            -45      44                Points:          90
 RS_GRID|   Bounds   3            -45      44                Points:          90
 RS_GRID| Real space distribution over                                  4 groups
 RS_GRID| Real space distribution along direction                              1
 RS_GRID| Border size                                                         20
 RS_GRID| Real space distribution over                                  4 groups
 RS_GRID| Real space distribution along direction                              2
 RS_GRID| Border size                                                         20
 RS_GRID| Real space distribution over                                  4 groups
 RS_GRID| Real space distribution along direction                              3
 RS_GRID| Border size                                                         20
 RS_GRID|   Distribution                         Average         Max         Min
 RS_GRID|   Planes                                  62.5          63          62
 RS_GRID|   Distribution                         Average         Max         Min
 RS_GRID|   Planes                                  62.5          63          62
 RS_GRID|   Distribution                         Average         Max         Min
 RS_GRID|   Planes                                  62.5          63          62

 RS_GRID| Information for grid number                                          3
 RS_GRID|   Bounds   1            -27      26                Points:          54
 RS_GRID|   Bounds   2            -27      26                Points:          54
 RS_GRID|   Bounds   3            -27      26                Points:          54
 RS_GRID| Real space fully replicated
 RS_GRID| Group size                                                           1

 RS_GRID| Information for grid number                                          4
 RS_GRID|   Bounds   1            -15      14                Points:          30
 RS_GRID|   Bounds   2            -15      14                Points:          30
 RS_GRID|   Bounds   3            -15      14                Points:          30
 RS_GRID| Real space fully replicated
 RS_GRID| Group size                                                           1

 DISTRIBUTION OF THE PARTICLES (ROWS)
              Process row      Number of particles         Number of matrix rows
                        0                       24                            -1
                        1                       24                            -1
                        2                       24                            -1
                        3                       24                            -1
                        4                       24                            -1
                        5                       24                            -1
                        6                       24                            -1
                        7                       24                            -1
                      Sum                      192                            -1

 DISTRIBUTION OF THE PARTICLES (COLUMNS)
              Process col      Number of particles      Number of matrix columns
                        0                       24                            -1
                        1                       24                            -1
                        2                       24                            -1
                        3                       24                            -1
                        4                       24                            -1
                        5                       24                            -1
                        6                       24                            -1
                        7                       24                            -1
                      Sum                      192                            -1

  HFX_INFO| Replica ID:                                                        1
  HFX_INFO| EPS_SCHWARZ:                                                 1.0E-06
  HFX_INFO| EPS_SCHWARZ_FORCES                                           1.0E-06
  HFX_INFO| EPS_STORAGE_SCALING:                                         1.0E-01
  HFX_INFO| NBINS:                                                            64
  HFX_INFO| BLOCK_SIZE:                                                        3
  HFX_INFO| FRACTION:                                               0.1500000000
  HFX_INFO| Interaction Potential:                                     TRUNCATED
  HFX_INFO| Cutoff Radius [angstrom]:                               6.0000000000
  HFX_INFO| NUMBER_OF_SHELLS:                                               AUTO
  HFX_INFO| Number of periodic shells considered:                             -1
  HFX_INFO| Number of periodic cells considered:                              27


 DISTRIBUTION OF THE NEIGHBOR LISTS
              Total number of particle pairs:                              21379
              Total number of matrix elements:                           1231147
              Average number of particle pairs:                              335
              Maximum number of particle pairs:                              370
              Average number of matrix element:                            19237
              Maximum number of matrix elements:                           21624


 DISTRIBUTION OF THE OVERLAP MATRIX
              Number  of non-zero blocks:                                  16652
              Percentage non-zero blocks:                                  89.87
              Average number of blocks per CPU:                              261
              Maximum number of blocks per CPU:                              279
              Average number of matrix elements per CPU:                   15194
              Maximum number of matrix elements per CPU:                   16625

 Number of electrons:                                                        512
 Number of occupied orbitals:                                                256
 Number of molecular orbitals:                                               256

 Number of orbital functions:                                               1472
 Number of independent orbital functions:                                   1472

 Extrapolation method: initial_guess


 SCF WAVEFUNCTION OPTIMIZATION

  ----------------------------------- OT ---------------------------------------

  Allowing for rotations:  F
  Optimizing orbital energies:  F
  Minimizer      : DIIS                : direct inversion
                                         in the iterative subspace
                            using      : -   7 DIIS vectors
                                         - safer DIIS on
  Preconditioner : FULL_SINGLE_INVERSE : inversion of H + eS - 2*(Sc)(c^T*H*c+const)(Sc)^T
  Precond_solver : DEFAULT
  stepsize       :    0.08000000
  energy_gap     :    0.08000000

  eps_taylor     :   0.10000E-15
  max_taylor     :             4

  mixed_precision    : F

  ----------------------------------- OT ---------------------------------------

  Step     Update method      Time    Convergence         Total energy    Change
  ------------------------------------------------------------------------------

  Trace(PS):                                  512.0000000000
  Electronic density on regular grids:       -511.9999999886        0.0000000114
  Core density on regular grids:              511.9999999836       -0.0000000164
  Total charge density on r-space grids:       -0.0000000051
  Total charge density g-space grids:          -0.0000000051


  HFX_MEM_INFO| Est. max. program size before HFX [MB's]:                    154

 *** 11:51:44 WARNING in hfx_energy_potential:integrate_four_center :: The ***
 *** Kohn Sham matrix is not 100% occupied. This may result in uncorrect   ***
 *** Hartree-Fock results. Try to decrease EPS_PGF_ORB and                 ***
 *** EPS_FILTER_MATRIX in the QS section.                                  ***

  HFX_MEM_INFO| Number of cart. primitive ERI's calculated:          16589933338
  HFX_MEM_INFO| Number of sph. ERI's calculated:                      3591883149
  HFX_MEM_INFO| Number of sph. ERI's stored in-core:                  1235927820
  HFX_MEM_INFO| Number of sph. ERI's stored on disk:                           0
  HFX_MEM_INFO| Number of sph. ERI's calculated on the fly:                    0
  HFX_MEM_INFO| Total memory consumption ERI's RAM [MB's]:                  1188
  HFX_MEM_INFO| Whereof max-vals [MB's]:                                      64
  HFX_MEM_INFO| Total compression factor ERI's RAM:                         7.94
  HFX_MEM_INFO| Total memory consumption ERI's disk [MB's]:                    0
  HFX_MEM_INFO| Total compression factor ERI's disk:                        0.00
  HFX_MEM_INFO| Size of density/Fock matrix [MB's]:                           14
  HFX_MEM_INFO| Size of buffers [MB's]:                                        2
  HFX_MEM_INFO| Number of periodic image cells considered:                    27
  HFX_MEM_INFO| Est. max. program size after HFX  [MB's]:                    194

     1 OT DIIS     0.80E-01   16.8     0.00047958     -1102.3418252740 -1.10E+03

  Trace(PS):                                  512.0000000000
  Electronic density on regular grids:       -511.9999999886        0.0000000114
  Core density on regular grids:              511.9999999836       -0.0000000164
  Total charge density on r-space grids:       -0.0000000051
  Total charge density g-space grids:          -0.0000000051

     2 OT DIIS     0.80E-01    1.3     0.00030187     -1102.3474613504 -5.64E-03

  Trace(PS):                                  512.0000000000
  Electronic density on regular grids:       -511.9999999887        0.0000000113
  Core density on regular grids:              511.9999999836       -0.0000000164
  Total charge density on r-space grids:       -0.0000000051
  Total charge density g-space grids:          -0.0000000051

     3 OT DIIS     0.80E-01    1.3     0.00004859     -1102.3512509406 -3.79E-03

  Trace(PS):                                  512.0000000000
  Electronic density on regular grids:       -511.9999999887        0.0000000113
  Core density on regular grids:              511.9999999836       -0.0000000164
  Total charge density on r-space grids:       -0.0000000051
  Total charge density g-space grids:          -0.0000000051

     4 OT DIIS     0.80E-01    1.3     0.00001328     -1102.3513441427 -9.32E-05

  Trace(PS):                                  512.0000000000
  Electronic density on regular grids:       -511.9999999887        0.0000000113
  Core density on regular grids:              511.9999999836       -0.0000000164
  Total charge density on r-space grids:       -0.0000000051
  Total charge density g-space grids:          -0.0000000051

     5 OT DIIS     0.80E-01    1.3     0.00000363     -1102.3513511847 -7.04E-06

  Trace(PS):                                  512.0000000000
  Electronic density on regular grids:       -511.9999999887        0.0000000113
  Core density on regular grids:              511.9999999836       -0.0000000164
  Total charge density on r-space grids:       -0.0000000051
  Total charge density g-space grids:          -0.0000000051

     6 OT DIIS     0.80E-01    1.3     0.00000134     -1102.3513516771 -4.92E-07

  Trace(PS):                                  512.0000000000
  Electronic density on regular grids:       -511.9999999887        0.0000000113
  Core density on regular grids:              511.9999999836       -0.0000000164
  Total charge density on r-space grids:       -0.0000000051
  Total charge density g-space grids:          -0.0000000051

     7 OT DIIS     0.80E-01    1.3     0.00000041     -1102.3513517461 -6.91E-08

  *** SCF run converged in     7 steps ***


  Electronic density on regular grids:       -511.9999999887        0.0000000113
  Core density on regular grids:              511.9999999836       -0.0000000164
  Total charge density on r-space grids:       -0.0000000051
  Total charge density g-space grids:          -0.0000000051

  Overlap energy of the core charge distribution:               0.00000237129466
  Self energy of the core charge distribution:              -2838.21791979121008
  Core Hamiltonian energy:                                    829.55585911998332
  Hartree energy:                                            1178.36771427412532
  Exchange-correlation energy:                               -234.06519941297174
  Hartree-Fock Exchange energy:                               -37.74544131920859
  Dispersion energy:                                           -0.24636698815184

  Total energy:                                             -1102.35135174613879

  outer SCF iter =    1 RMS gradient =   0.41E-06 energy =      -1102.3513517461
  outer SCF loop converged in   1 iterations or    7 steps



 MULLIKEN POPULATION ANALYSIS

 #  Atom  Element  Kind  Atomic population                Net charge
       1     O        1          6.520134                 -0.520134
       2     H        2          0.753490                  0.246510
       3     H        2          0.729032                  0.270968
       4     O        1          6.507941                 -0.507941
       5     H        2          0.757337                  0.242663
       6     H        2          0.703428                  0.296572
       7     O        1          6.489233                 -0.489233
       8     H        2          0.728155                  0.271845
       9     H        2          0.763992                  0.236008
      10     O        1          6.496488                 -0.496488
      11     H        2          0.780956                  0.219044
      12     H        2          0.758895                  0.241105
      13     O        1          6.510138                 -0.510138
      14     H        2          0.746204                  0.253796
      15     H        2          0.747811                  0.252189
      16     O        1          6.601909                 -0.601909
      17     H        2          0.701152                  0.298848
      18     H        2          0.710982                  0.289018
      19     O        1          6.506054                 -0.506054
      20     H        2          0.713380                  0.286620
      21     H        2          0.773273                  0.226727
      22     O        1          6.474477                 -0.474477
      23     H        2          0.785609                  0.214391
      24     H        2          0.740740                  0.259260
      25     O        1          6.502857                 -0.502857
      26     H        2          0.761984                  0.238016
      27     H        2          0.733791                  0.266209
      28     O        1          6.517113                 -0.517113
      29     H        2          0.761582                  0.238418
      30     H        2          0.730973                  0.269027
      31     O        1          6.503140                 -0.503140
      32     H        2          0.748205                  0.251795
      33     H        2          0.778215                  0.221785
      34     O        1          6.606025                 -0.606025
      35     H        2          0.715130                  0.284870
      36     H        2          0.690443                  0.309557
      37     O        1          6.512030                 -0.512030
      38     H        2          0.735643                  0.264357
      39     H        2          0.728119                  0.271881
      40     O        1          6.450884                 -0.450884
      41     H        2          0.742415                  0.257585
      42     H        2          0.800857                  0.199143
      43     O        1          6.576233                 -0.576233
      44     H        2          0.712647                  0.287353
      45     H        2          0.744775                  0.255225
      46     O        1          6.491386                 -0.491386
      47     H        2          0.783575                  0.216425
      48     H        2          0.733327                  0.266673
      49     O        1          6.561816                 -0.561816
      50     H        2          0.712805                  0.287195
      51     H        2          0.737725                  0.262275
      52     O        1          6.531376                 -0.531376
      53     H        2          0.758637                  0.241363
      54     H        2          0.737578                  0.262422
      55     O        1          6.558863                 -0.558863
      56     H        2          0.735638                  0.264362
      57     H        2          0.701444                  0.298556
      58     O        1          6.540533                 -0.540533
      59     H        2          0.729263                  0.270737
      60     H        2          0.725827                  0.274173
      61     O        1          6.562984                 -0.562984
      62     H        2          0.716067                  0.283933
      63     H        2          0.698387                  0.301613
      64     O        1          6.506653                 -0.506653
      65     H        2          0.766172                  0.233828
      66     H        2          0.745607                  0.254393
      67     O        1          6.534910                 -0.534910
      68     H        2          0.741373                  0.258627
      69     H        2          0.737563                  0.262437
      70     O        1          6.487256                 -0.487256
      71     H        2          0.756360                  0.243640
      72     H        2          0.766293                  0.233707
      73     O        1          6.498112                 -0.498112
      74     H        2          0.736413                  0.263587
      75     H        2          0.747724                  0.252276
      76     O        1          6.485662                 -0.485662
      77     H        2          0.733245                  0.266755
      78     H        2          0.755077                  0.244923
      79     O        1          6.517652                 -0.517652
      80     H        2          0.711633                  0.288367
      81     H        2          0.759396                  0.240604
      82     O        1          6.581050                 -0.581050
      83     H        2          0.696887                  0.303113
      84     H        2          0.727219                  0.272781
      85     O        1          6.603202                 -0.603202
      86     H        2          0.714988                  0.285012
      87     H        2          0.663436                  0.336564
      88     O        1          6.553908                 -0.553908
      89     H        2          0.692709                  0.307291
      90     H        2          0.721711                  0.278289
      91     O        1          6.508158                 -0.508158
      92     H        2          0.775479                  0.224521
      93     H        2          0.709069                  0.290931
      94     O        1          6.558757                 -0.558757
      95     H        2          0.729522                  0.270478
      96     H        2          0.707183                  0.292817
      97     O        1          6.552833                 -0.552833
      98     H        2          0.752825                  0.247175
      99     H        2          0.688636                  0.311364
     100     O        1          6.496134                 -0.496134
     101     H        2          0.739637                  0.260363
     102     H        2          0.733775                  0.266225
     103     O        1          6.535872                 -0.535872
     104     H        2          0.758259                  0.241741
     105     H        2          0.677150                  0.322850
     106     O        1          6.505034                 -0.505034
     107     H        2          0.751432                  0.248568
     108     H        2          0.789818                  0.210182
     109     O        1          6.533638                 -0.533638
     110     H        2          0.729005                  0.270995
     111     H        2          0.729467                  0.270533
     112     O        1          6.512569                 -0.512569
     113     H        2          0.729887                  0.270113
     114     H        2          0.778422                  0.221578
     115     O        1          6.560007                 -0.560007
     116     H        2          0.732107                  0.267893
     117     H        2          0.701167                  0.298833
     118     O        1          6.594442                 -0.594442
     119     H        2          0.723006                  0.276994
     120     H        2          0.713333                  0.286667
     121     O        1          6.511302                 -0.511302
     122     H        2          0.764929                  0.235071
     123     H        2          0.731173                  0.268827
     124     O        1          6.491515                 -0.491515
     125     H        2          0.733446                  0.266554
     126     H        2          0.778505                  0.221495
     127     O        1          6.517977                 -0.517977
     128     H        2          0.724688                  0.275312
     129     H        2          0.722240                  0.277760
     130     O        1          6.526586                 -0.526586
     131     H        2          0.729789                  0.270211
     132     H        2          0.751881                  0.248119
     133     O        1          6.551640                 -0.551640
     134     H        2          0.764445                  0.235555
     135     H        2          0.673391                  0.326609
     136     O        1          6.489146                 -0.489146
     137     H        2          0.727166                  0.272834
     138     H        2          0.784603                  0.215397
     139     O        1          6.541860                 -0.541860
     140     H        2          0.720715                  0.279285
     141     H        2          0.742216                  0.257784
     142     O        1          6.511234                 -0.511234
     143     H        2          0.747929                  0.252071
     144     H        2          0.752063                  0.247937
     145     O        1          6.572614                 -0.572614
     146     H        2          0.734238                  0.265762
     147     H        2          0.694630                  0.305370
     148     O        1          6.557130                 -0.557130
     149     H        2          0.749487                  0.250513
     150     H        2          0.712353                  0.287647
     151     O        1          6.470183                 -0.470183
     152     H        2          0.769378                  0.230622
     153     H        2          0.753338                  0.246662
     154     O        1          6.518077                 -0.518077
     155     H        2          0.759403                  0.240597
     156     H        2          0.717813                  0.282187
     157     O        1          6.506519                 -0.506519
     158     H        2          0.730615                  0.269385
     159     H        2          0.736909                  0.263091
     160     O        1          6.467368                 -0.467368
     161     H        2          0.731522                  0.268478
     162     H        2          0.758079                  0.241921
     163     O        1          6.500872                 -0.500872
     164     H        2          0.756656                  0.243344
     165     H        2          0.767182                  0.232818
     166     O        1          6.524210                 -0.524210
     167     H        2          0.749263                  0.250737
     168     H        2          0.733187                  0.266813
     169     O        1          6.478337                 -0.478337
     170     H        2          0.751683                  0.248317
     171     H        2          0.751553                  0.248447
     172     O        1          6.520680                 -0.520680
     173     H        2          0.731050                  0.268950
     174     H        2          0.777676                  0.222324
     175     O        1          6.574823                 -0.574823
     176     H        2          0.706465                  0.293535
     177     H        2          0.716183                  0.283817
     178     O        1          6.551530                 -0.551530
     179     H        2          0.729260                  0.270740
     180     H        2          0.718125                  0.281875
     181     O        1          6.501185                 -0.501185
     182     H        2          0.754805                  0.245195
     183     H        2          0.751822                  0.248178
     184     O        1          6.540718                 -0.540718
     185     H        2          0.733894                  0.266106
     186     H        2          0.742830                  0.257170
     187     O        1          6.508392                 -0.508392
     188     H        2          0.717880                  0.282120
     189     H        2          0.779864                  0.220136
     190     O        1          6.528890                 -0.528890
     191     H        2          0.729084                  0.270916
     192     H        2          0.721868                  0.278132
 # Total charge                512.000000                 -0.000000


 !-----------------------------------------------------------------------------!
                           Hirschfeld Charges

  #Atom  Element  Kind  Ref Charge     Population                     Net charge
      1       O      1       6.000          6.525                         -0.525
      2       H      2       1.000          0.733                          0.267
      3       H      2       1.000          0.744                          0.256
      4       O      1       6.000          6.507                         -0.507
      5       H      2       1.000          0.738                          0.262
      6       H      2       1.000          0.725                          0.275
      7       O      1       6.000          6.488                         -0.488
      8       H      2       1.000          0.746                          0.254
      9       H      2       1.000          0.732                          0.268
     10       O      1       6.000          6.486                         -0.486
     11       H      2       1.000          0.747                          0.253
     12       H      2       1.000          0.748                          0.252
     13       O      1       6.000          6.515                         -0.515
     14       H      2       1.000          0.734                          0.266
     15       H      2       1.000          0.735                          0.265
     16       O      1       6.000          6.526                         -0.526
     17       H      2       1.000          0.735                          0.265
     18       H      2       1.000          0.752                          0.248
     19       O      1       6.000          6.517                         -0.517
     20       H      2       1.000          0.750                          0.250
     21       H      2       1.000          0.743                          0.257
     22       O      1       6.000          6.519                         -0.519
     23       H      2       1.000          0.735                          0.265
     24       H      2       1.000          0.739                          0.261
     25       O      1       6.000          6.519                         -0.519
     26       H      2       1.000          0.742                          0.258
     27       H      2       1.000          0.742                          0.258
     28       O      1       6.000          6.510                         -0.510
     29       H      2       1.000          0.746                          0.254
     30       H      2       1.000          0.737                          0.263
     31       O      1       6.000          6.570                         -0.570
     32       H      2       1.000          0.735                          0.265
     33       H      2       1.000          0.757                          0.243
     34       O      1       6.000          6.536                         -0.536
     35       H      2       1.000          0.741                          0.259
     36       H      2       1.000          0.747                          0.253
     37       O      1       6.000          6.504                         -0.504
     38       H      2       1.000          0.740                          0.260
     39       H      2       1.000          0.739                          0.261
     40       O      1       6.000          6.508                         -0.508
     41       H      2       1.000          0.744                          0.256
     42       H      2       1.000          0.739                          0.261
     43       O      1       6.000          6.514                         -0.514
     44       H      2       1.000          0.740                          0.260
     45       H      2       1.000          0.761                          0.239
     46       O      1       6.000          6.506                         -0.506
     47       H      2       1.000          0.751                          0.249
     48       H      2       1.000          0.752                          0.248
     49       O      1       6.000          6.550                         -0.550
     50       H      2       1.000          0.754                          0.246
     51       H      2       1.000          0.743                          0.257
     52       O      1       6.000          6.545                         -0.545
     53       H      2       1.000          0.749                          0.251
     54       H      2       1.000          0.756                          0.244
     55       O      1       6.000          6.491                         -0.491
     56       H      2       1.000          0.739                          0.261
     57       H      2       1.000          0.744                          0.256
     58       O      1       6.000          6.527                         -0.527
     59       H      2       1.000          0.730                          0.270
     60       H      2       1.000          0.747                          0.253
     61       O      1       6.000          6.479                         -0.479
     62       H      2       1.000          0.736                          0.264
     63       H      2       1.000          0.737                          0.263
     64       O      1       6.000          6.525                         -0.525
     65       H      2       1.000          0.748                          0.252
     66       H      2       1.000          0.750                          0.250
     67       O      1       6.000          6.515                         -0.515
     68       H      2       1.000          0.756                          0.244
     69       H      2       1.000          0.752                          0.248
     70       O      1       6.000          6.528                         -0.528
     71       H      2       1.000          0.753                          0.247
     72       H      2       1.000          0.728                          0.272
     73       O      1       6.000          6.491                         -0.491
     74       H      2       1.000          0.750                          0.250
     75       H      2       1.000          0.748                          0.252
     76       O      1       6.000          6.491                         -0.491
     77       H      2       1.000          0.738                          0.262
     78       H      2       1.000          0.742                          0.258
     79       O      1       6.000          6.492                         -0.492
     80       H      2       1.000          0.742                          0.258
     81       H      2       1.000          0.721                          0.279
     82       O      1       6.000          6.538                         -0.538
     83       H      2       1.000          0.750                          0.250
     84       H      2       1.000          0.736                          0.264
     85       O      1       6.000          6.502                         -0.502
     86       H      2       1.000          0.743                          0.257
     87       H      2       1.000          0.730                          0.270
     88       O      1       6.000          6.488                         -0.488
     89       H      2       1.000          0.733                          0.267
     90       H      2       1.000          0.748                          0.252
     91       O      1       6.000          6.516                         -0.516
     92       H      2       1.000          0.735                          0.265
     93       H      2       1.000          0.749                          0.251
     94       O      1       6.000          6.515                         -0.515
     95       H      2       1.000          0.738                          0.262
     96       H      2       1.000          0.737                          0.263
     97       O      1       6.000          6.519                         -0.519
     98       H      2       1.000          0.729                          0.271
     99       H      2       1.000          0.747                          0.253
    100       O      1       6.000          6.492                         -0.492
    101       H      2       1.000          0.740                          0.260
    102       H      2       1.000          0.738                          0.262
    103       O      1       6.000          6.495                         -0.495
    104       H      2       1.000          0.735                          0.265
    105       H      2       1.000          0.733                          0.267
    106       O      1       6.000          6.533                         -0.533
    107       H      2       1.000          0.750                          0.250
    108       H      2       1.000          0.751                          0.249
    109       O      1       6.000          6.490                         -0.490
    110       H      2       1.000          0.734                          0.266
    111       H      2       1.000          0.734                          0.266
    112       O      1       6.000          6.513                         -0.513
    113       H      2       1.000          0.748                          0.252
    114       H      2       1.000          0.741                          0.259
    115       O      1       6.000          6.471                         -0.471
    116       H      2       1.000          0.742                          0.258
    117       H      2       1.000          0.725                          0.275
    118       O      1       6.000          6.568                         -0.568
[...]
    190       O      1       6.000          6.498                         -0.498
    191       H      2       1.000          0.753                          0.247
    192       H      2       1.000          0.746                          0.254

  Total Charge                                                            -0.000
 !-----------------------------------------------------------------------------!
  
  Eigenvalues of the occupied subspace spin            1
 ---------------------------------------------
      -0.89182068     -0.88932042     -0.88738423     -0.88531859
      -0.88368251     -0.88189980     -0.88149993     -0.88070792
      -0.88040888     -0.87853666     -0.87660452     -0.87449852
      -0.87331288     -0.87302772     -0.87131294     -0.87043336
      -0.87002756     -0.86831893     -0.86709983     -0.86553228
      -0.86514413     -0.86419302     -0.86322232     -0.86293623
      -0.86119049     -0.86062409     -0.86028952     -0.86011790
      -0.85907093     -0.85608976     -0.85495891     -0.85428860
      -0.85383518     -0.85352111     -0.85333896     -0.85265487
      -0.85220936     -0.85065023     -0.85020103     -0.84913904
      -0.84819201     -0.84751832     -0.84628023     -0.84582902
      -0.84471616     -0.84327841     -0.84246139     -0.84132629
      -0.84080043     -0.83982880     -0.83846379     -0.83693449
      -0.83531807     -0.83487930     -0.83144894     -0.82885713
      -0.82764430     -0.82598707     -0.82465348     -0.82192230
      -0.82040419     -0.81724621     -0.80982847     -0.80295935
      -0.42634650     -0.41717294     -0.41468600     -0.41419178
      -0.41337829     -0.41175769     -0.41028111     -0.40960612
      -0.40866593     -0.40774668     -0.40741392     -0.40618999
      -0.40408885     -0.40303750     -0.40207791     -0.40099334
      -0.40056277     -0.39984580     -0.39813155     -0.39749630
      -0.39624734     -0.39520239     -0.39390941     -0.39309677
      -0.39142376     -0.39058679     -0.39001876     -0.38954975
      -0.38784863     -0.38741933     -0.38686974     -0.38553636
      -0.38452598     -0.38317693     -0.38303364     -0.38168813
      -0.38154202     -0.38071381     -0.38045864     -0.37986804
      -0.37969686     -0.37826482     -0.37767110     -0.37707568
      -0.37580259     -0.37432087     -0.37385040     -0.37303714
      -0.37208488     -0.37176289     -0.36920403     -0.36893515
      -0.36849196     -0.36533443     -0.36484195     -0.36006310
      -0.35923769     -0.35714833     -0.35604973     -0.35159643
      -0.35130023     -0.34772909     -0.34358447     -0.32974315
      -0.30845479     -0.30430700     -0.30093148     -0.30061496
      -0.29852101     -0.29642869     -0.29507654     -0.29218451
      -0.29112181     -0.28828038     -0.28617019     -0.28502502
      -0.28063958     -0.27957422     -0.27625342     -0.27493685
      -0.27353094     -0.27320262     -0.27251088     -0.27196079
      -0.26868193     -0.26694057     -0.26332592     -0.26244879
      -0.26086108     -0.25962840     -0.25868766     -0.25585650
      -0.25433779     -0.25286895     -0.25073002     -0.24920768
      -0.24803840     -0.24693946     -0.24677523     -0.24637353
      -0.24359852     -0.24308864     -0.24095015     -0.23949691
      -0.23858118     -0.23731059     -0.23581227     -0.23472918
      -0.23361331     -0.23300562     -0.23055232     -0.22934663
      -0.22815068     -0.22723560     -0.22621172     -0.22417340
      -0.22301862     -0.22183598     -0.22156062     -0.21851865
      -0.21728216     -0.21567771     -0.21340908     -0.21316841
      -0.21183726     -0.21027071     -0.20173062     -0.19500248
      -0.19405821     -0.19314774     -0.19092248     -0.18974210
      -0.18922863     -0.18902649     -0.18852409     -0.18734336
      -0.18632795     -0.18480075     -0.18417506     -0.18348925
      -0.18335387     -0.18193338     -0.18111889     -0.18000798
      -0.17968239     -0.17910253     -0.17793234     -0.17768637
      -0.17658829     -0.17625597     -0.17563246     -0.17541374
      -0.17524885     -0.17486276     -0.17424184     -0.17368702
      -0.17297129     -0.17225988     -0.17168413     -0.17135177
      -0.17025444     -0.16954921     -0.16911152     -0.16765620
      -0.16683610     -0.16660049     -0.16629164     -0.16590238
      -0.16499242     -0.16402086     -0.16309213     -0.16243201
      -0.16191411     -0.16180640     -0.16100112     -0.15988380
      -0.15947092     -0.15893112     -0.15839536     -0.15767676
      -0.15748604     -0.15668430     -0.15512548     -0.15278431
      -0.15138530     -0.15064456     -0.14860739     -0.14816124
      -0.14558369     -0.14085887     -0.14006174     -0.13665363
 Fermi Energy [eV] :   -3.718534
  
  Lowest Eigenvalues of the unoccupied subspace spin            1
 -----------------------------------------------------
  Reached convergence in          137  iterations 
       0.09496686      0.13886596      0.14603663      0.14952099
  
 HOMO - LUMO gap [eV] :    6.302714

 ENERGY| Total FORCE_EVAL ( QS ) energy (a.u.):            -1102.351351746138789


 -------------------------------------------------------------------------------
 -                                                                             -
 -                                DBCSR STATISTICS                             -
 -                                                                             -
 -------------------------------------------------------------------------------
 COUNTER                                      CPU                  ACC      ACC%
 number of processed stacks                223329                    0       0.0
 matmuls inhomo. stacks                         0                    0       0.0
 matmuls total                           16643849                    0       0.0
 flops   4 x    4 x    4                    83072                    0       0.0
 flops  36 x    4 x   36                   715392                    0       0.0
 flops  36 x    4 x   32                  4451328                    0       0.0
 flops  32 x    4 x   36                  4451328                    0       0.0
 flops   4 x    4 x  184                 12576768                    0       0.0
 flops  36 x   36 x  184                 15261696                    0       0.0
 flops 184 x    4 x    4                 19406848                    0       0.0
 flops  36 x    4 x  184                 29251584                    0       0.0
 flops 184 x    4 x   36                 29251584                    0       0.0
 flops  32 x    4 x   32                 29794304                    0       0.0
 flops   5 x   32 x   32                 94371840                    0       0.0
 flops  32 x   36 x  184                 94961664                    0       0.0
 flops  36 x   32 x  184                 94961664                    0       0.0
 flops  13 x   32 x   32                122683392                    0       0.0
 flops  32 x    4 x  184                194068480                    0       0.0
 flops 184 x    4 x   32                194068480                    0       0.0
 flops 184 x   36 x  184                624033792                    0       0.0
 flops   5 x    4 x    5                830415600                    0       0.0
 flops   5 x    5 x   32                874188800                    0       0.0
 flops  13 x    4 x    5               1062565920                    0       0.0
 flops   5 x    4 x   13               1062565920                    0       0.0
 flops  13 x    5 x   32               1109155840                    0       0.0
 flops   5 x   13 x   32               1113415680                    0       0.0
 flops 184 x    4 x  184               1196064768                    0       0.0
 flops  32 x   32 x   32               1275068416                    0       0.0
 flops  13 x    4 x   13               1351159056                    0       0.0
 flops  13 x   13 x   32               1441902592                    0       0.0
 flops   5 x   32 x    5               4381260800                    0       0.0
 flops  13 x   32 x    5               5606082560                    0       0.0
 flops   5 x   32 x   13               5606082560                    0       0.0
 flops 184 x   32 x   32               6366953472                    0       0.0
 flops  32 x   32 x  184               6680477696                    0       0.0
 flops  13 x   32 x   13               7128695808                    0       0.0
 flops 184 x   32 x  184              12758024192                    0       0.0
 flops total                          61408472896                    0       0.0
 marketing flops                      70607517696
 -------------------------------------------------------------------------------

 -------------------------------------------------------------------------------
 ----                             MULTIGRID INFO                            ----
 -------------------------------------------------------------------------------
 count for grid        1:          38071          cutoff [a.u.]          200.00
 count for grid        2:          57438          cutoff [a.u.]           66.67
 count for grid        3:          57763          cutoff [a.u.]           22.22
 count for grid        4:          11599          cutoff [a.u.]            7.41
 total gridlevel count  :         164871

 -------------------------------------------------------------------------------
 -                                                                             -
 -                         MESSAGE PASSING PERFORMANCE                         -
 -                                                                             -
 -------------------------------------------------------------------------------

 ROUTINE             CALLS  TOT TIME [s]  AVE VOLUME [Bytes]  PERFORMANCE [MB/s]
 MP_Group                5         0.000
 MP_Bcast             3285         0.031              81429.             8661.18
 MP_Allreduce         6905         2.033                193.                0.66
 MP_Gather               4         0.001               1792.                7.35
 MP_Sync               155         1.665
 MP_Alltoall          7178         3.117
 MP_ISendRecv         2898         0.006              48653.            22345.91
 MP_Wait            168316         1.664
 MP_comm_split         113         0.015
 MP_ISend            74722         0.116              30684.            19805.90
 MP_IRecv            74722         0.083              30503.            27578.76
 MP_Recv                 7         0.000             376832.             5926.00
 MP_Memory           48116         8.938
 -------------------------------------------------------------------------------


 -------------------------------------------------------------------------------
 -                                                                             -
 -                           R E F E R E N C E S                               -
 -                                                                             -
 -------------------------------------------------------------------------------
 
 CP2K version 2.6, the CP2K developers group (2014).
 CP2K is freely available from http://www.cp2k.org/ .

 Borstnik, U; VandeVondele, J; Weber, V; Hutter, J. 
 PARALLEL COMPUTING, 40 (5-6), 47-58 (2014). 
 Sparse matrix multiplication: The distributed block-compressed sparse
 row library.
 http://dx.doi.org/10.1016/j.parco.2014.03.012


 Hutter, J; Iannuzzi, M; Schiffmann, F; VandeVondele, J. 
 WILEY INTERDISCIPLINARY REVIEWS-COMPUTATIONAL MOLECULAR SCIENCE, 4 (1), 15-25 (2014). 
 CP2K: atomistic simulations of condensed matter systems.
 http://dx.doi.org/10.1002/wcms.1159


 Grimme, S; Ehrlich, S; Goerigk, L. 
 JOURNAL OF COMPUTATIONAL CHEMISTRY, 32, 1456 (2011). 
 Effect of the damping function in dispersion corrected density functional theory.
 http://dx.doi.org/10.1002/jcc.21759


 Grimme, S; Antony, J; Ehrlich, S; Krieg, H. 
 JOURNAL OF CHEMICAL PHYSICS, 132 (15), 154104 (2010). 
 A consistent and accurate ab initio parametrization of density
 functional dispersion correction (DFT-D) for the 94 elements H-Pu.
 http://dx.doi.org/10.1063/1.3382344


 Guidon, M; Hutter, J; VandeVondele, J. 
 JOURNAL OF CHEMICAL THEORY AND COMPUTATION, 5 (11), 3010-3021 (2009). 
 Robust Periodic Hartree-Fock Exchange for Large-Scale Simulations Using
 Gaussian Basis Sets.
 http://dx.doi.org/10.1021/ct900494g


 Guidon, M; Schiffmann, F; Hutter, J; VandeVondele, J. 
 JOURNAL OF CHEMICAL PHYSICS, 128 (21), 214104 (2008). 
 Ab initio molecular dynamics using hybrid density functionals.
 http://dx.doi.org/10.1063/1.2931945


 Krack, M. 
 THEORETICAL CHEMISTRY ACCOUNTS, 114 (1-3), 145-152 (2005). 
 Pseudopotentials for H to Kr optimized for gradient-corrected
 exchange-correlation functionals.
 http://dx.doi.org/10.1007/s00214-005-0655-y


 VandeVondele, J; Krack, M; Mohamed, F; Parrinello, M; Chassaing, T;
 Hutter, J. COMPUTER PHYSICS COMMUNICATIONS, 167 (2), 103-128 (2005). 
 QUICKSTEP: Fast and accurate density functional calculations using a
 mixed Gaussian and plane waves approach.
 http://dx.doi.org/10.1016/j.cpc.2004.12.014


 Frigo, M; Johnson, SG. 
 PROCEEDINGS OF THE IEEE, 93 (2), 216-231 (2005). 
 The design and implementation of FFTW3.
 http://dx.doi.org/10.1109/JPROC.2004.840301


 VandeVondele, J; Hutter, J. 
 JOURNAL OF CHEMICAL PHYSICS, 118 (10), 4365-4369 (2003). 
 An efficient orbital transformation method for electronic structure
 calculations.
 http://dx.doi.org/10.1063/1.1543154


 Hartwigsen, C; Goedecker, S; Hutter, J. 
 PHYSICAL REVIEW B, 58 (7), 3641-3662 (1998). 
 Relativistic separable dual-space Gaussian pseudopotentials from H to Rn.
 http://dx.doi.org/10.1103/PhysRevB.58.3641


 Lippert, G; Hutter, J; Parrinello, M. 
 MOLECULAR PHYSICS, 92 (3), 477-487 (1997). 
 A hybrid Gaussian and plane wave density functional scheme.
 http://dx.doi.org/10.1080/002689797170220


 Perdew, JP; Burke, K; Ernzerhof, M. 
 PHYSICAL REVIEW LETTERS, 77 (18), 3865-3868 (1996). 
 Generalized gradient approximation made simple.
 http://dx.doi.org/10.1103/PhysRevLett.77.3865


 Goedecker, S; Teter, M; Hutter, J. 
 PHYSICAL REVIEW B, 54 (3), 1703-1710 (1996). 
 Separable dual-space Gaussian pseudopotentials.
 http://dx.doi.org/10.1103/PhysRevB.54.1703


 -------------------------------------------------------------------------------
 -                                                                             -
 -                                T I M I N G                                  -
 -                                                                             -
 -------------------------------------------------------------------------------
 SUBROUTINE                       CALLS  ASD         SELF TIME        TOTAL TIME
                                MAXIMUM       AVERAGE  MAXIMUM  AVERAGE  MAXIMUM
 CP2K                                 1  1.0    0.026    0.031   43.446   43.456
 qs_energies_scf                      1  2.0    0.000    0.000   43.152   43.158
 scf_env_do_scf                       1  3.0    0.000    0.000   25.678   25.681
 qs_ks_update_qs_env                  8  5.0    0.000    0.000   22.968   22.973
 rebuild_ks_matrix                    7  6.0    0.000    0.000   22.966   22.971
 qs_ks_build_kohn_sham_matrix         7  7.0    0.002    0.002   22.966   22.971
 hfx_ks_matrix                        7  8.0    0.000    0.000   21.343   21.358
 integrate_four_center                7  9.0    1.845    2.364   21.339   21.354
 integrate_four_center_main           7 10.0    0.004    0.005   17.579   18.976
 integrate_four_center_bin          469 11.0   17.575   18.972   17.575   18.972
 init_scf_loop                        1  4.0    0.000    0.000   16.703   16.706
 dbcsr_mm_cannon_multiply          2057  7.9    0.909    1.106   16.223   16.389
 scf_post_calculation_gpw             1  3.0    0.000    0.000   15.951   15.953
 make_lumo                            1  4.0    0.000    0.000   15.830   15.832
 ot_eigensolver                       1  5.0    0.006    0.006   15.816   15.818
 scf_env_do_scf_inner_loop            7  4.0    0.000    0.001    8.667    8.975
 ot_mini                            144  6.0    0.002    0.002    8.230    8.236
 cannon_multiply_low               2057  8.9    0.737    0.988    7.222    7.552
 qs_ot_get_derivative                76  7.1    0.002    0.002    7.339    7.354
 dbcsr_make_images                 4114  8.9    0.011    0.012    5.737    5.895
 make_images                       4114  9.9    0.148    0.175    5.727    5.884
 dbcsr_data_new                   70682 10.8    0.148    0.169    4.201    4.674
 internal_data_allocate           42864 11.9    4.056    4.521    4.056    4.521
 qs_ot_get_derivative_diag           53  8.0    0.004    0.004    4.071    4.081
 qs_ot_get_p                        149  6.0    0.002    0.002    3.509    3.586
 dbcsr_create_new                 30353  9.8    0.142    0.158    3.232    3.359
 dbcsr_data_release              126637 11.1    0.131    0.148    2.757    3.046
 internal_data_deallocate         42864 12.1    2.629    2.924    2.629    2.924
 setup_buffer_matrices             4114  9.9    1.422    1.486    2.178    2.356
 qs_ot_get_orbitals                 148  6.0    0.002    0.003    2.247    2.257
 dbcsr_destroy                    25258  9.2    0.071    0.079    2.004    2.249
 fft_wrap_pw1pw2                    125  9.6    0.002    0.003    2.055    2.067
 buffer_matrices_ensure_size       4114  9.9    1.648    1.997    1.648    1.997
 fft_wrap_pw1pw2_200                 80 10.7    0.056    0.069    1.962    1.972
 fft3d_ps                           125 11.6    0.263    0.338    1.932    1.950
 qs_ot_p2m_diag                     111  7.0    0.003    0.004    1.875    1.890
 integrate_four_center_load           7 10.0    0.000    0.000    1.591    1.593
 hfx_load_balance                     1 11.0    0.001    0.001    1.591    1.593
 dbcsr_make_images_dense           3488  9.2    0.058    0.071    1.311    1.450
 make_images_sizes                 4114 10.9    1.228    1.411    1.228    1.411
 cannon_multiply_low_metrocomm1   16456  9.9    0.727    1.409    0.727    1.409
 yz_to_x                             45 12.4    1.302    1.340    1.302    1.340
 qs_ot_get_derivative_taylor         23  8.3    0.002    0.002    1.329    1.333
 hfx_load_balance_dist                1 12.0    0.588    1.107    0.588    1.107
 qs_energies_init_hamiltonians        1  3.0    0.000    0.000    1.092    1.093
 qs_env_update_s_mstruct              1  4.0    0.000    0.000    1.041    1.044
 calculate_rho_core                   1  5.0    0.007    0.016    1.018    1.018
 qs_scf_loop_do_ot                    7  5.0    0.000    0.000    0.998    1.000
 cannon_multiply_low_metrocomm3   16456  9.9    0.688    0.984    0.688    0.984
 ot_scf_mini                          7  6.0    0.000    0.001    0.932    0.934
 dbcsr_special_finalize            4114 10.9    0.011    0.014    0.787    0.896
 apply_preconditioner_dbcsr          81  7.2    0.000    0.000    0.844    0.876
 apply_single                        81  8.2    0.001    0.001    0.844    0.876
 dbcsr_switch_data_area           17160 10.8    0.025    0.028    0.771    0.872
 quick_finalize                    4673 11.8    0.019    0.022    0.767    0.871
 -------------------------------------------------------------------------------

  **** **** ******  **  PROGRAM ENDED AT                 2015-03-10 11:52:25.687
 ***** ** ***  *** **   PROGRAM RAN ON                                      n268
 **    ****   ******    PROGRAM RAN BY                                     bja39
 ***** **    ** ** **   PROGRAM PROCESS ID                                 82151
  **** **  *******  **  PROGRAM STOPPED IN /home/dlambrecht/bja39/cp2k/hfx/hfx15
