                  Welcome to Q-Chem
     A Quantum Leap Into The Future Of Chemistry


 Q-Chem 4.3 (beta), Q-Chem, Inc., Pleasanton, CA (2015)

 Y. Shao,  Z. Gan,  E. Epifanovsky,  A. T. B. Gilbert,  M. Wormit,  
 J. Kussmann,  A. W. Lange,  A. Behn,  J. Deng,  X. Feng,  D. Ghosh,  
 M. Goldey,  P. R. Horn,  L. D. Jacobson,  I. Kaliman,  R. Z. Khaliullin,  
 T. Kus,  A. Landau,  J. Liu,  E. I. Proynov,  Y. M. Rhee,  R. M. Richard,  
 M. A. Rohrdanz,  R. P. Steele,  E. J. Sundstrom,  H. L. Woodcock III,  
 P. M. Zimmerman,  D. Zuev,  B. Albrecht,  E. Alguire,  B. Austin,  
 S. A. Baeppler,  G. J. O. Beran,  Y. A. Bernard,  E. Berquist,  
 K. Brandhorst,  K. B. Bravaya,  S. T. Brown,  D. Casanova,  C.-M. Chang,  
 Y. Chen,  S. H. Chien,  K. D. Closser,  D. L. Crittenden,  M. Diedenhofen,  
 R. A. DiStasio Jr.,  H. Do,  A. D. Dutoi,  R. G. Edgar,  P.-T. Fang,  
 S. Fatehi,  Q. Feng,  L. Fusti-Molnar,  A. Ghysels,  
 A. Golubeva-Zadorozhnaya,  J. Gomes,  A. Gunina,  M. W. D. Hanson-Heine,  
 P. H. P. Harbach,  A. W. Hauser,  E. G. Hohenstein,  Z. C. Holden,  K. Hui,  
 T.-C. Jagau,  H. Ji,  B. Kaduk,  K. Khistyaev,  Jaehoon Kim,  Jihan Kim,  
 R. A. King,  P. Klunzinger,  D. Kosenkov,  T. Kowalczyk,  C. M. Krauter,  
 K. U. Lao,  A. Laurent,  K. V. Lawler,  S. Lehtola,  S. V. Levchenko,  
 C. Y. Lin,  Y.-S. Lin,  F. Liu,  E. Livshits,  R. C. Lochan,  A. Luenser,  
 P. Manohar,  S. F. Manzer,  S.-P. Mao,  N. Mardirossian,  A. V. Marenich,  
 L. A. Martinez-Martinez,  S. A. Maurer,  N. J. Mayhall,  K. Nanda,  
 C. M. Oana,  R. Olivares-Amaya,  D. P. O'Neill,  J. A. Parkhill,  
 T. M. Perrine,  R. Peverati,  P. A. Pieniazek,  F. Plasser,  A. Prociuk,  
 D. R. Rehn,  E. Rosta,  N. J. Russ,  N. Sergueev,  S. M. Sharada,  
 S. Sharma,  D. W. Small,  A. Sodt,  T. Stauch,  T. Stein,  D. Stuck,  
 Y.-C. Su,  A. J. W. Thom,  T. Tsuchimochi,  L. Vogt,  O. Vydrov,  T. Wang,  
 M. A. Watson,  J. Wenzel,  A. White,  C. F. Williams,  V. Vanovschi,  
 S. Yeganeh,  S. R. Yost,  Z.-Q. You,  I. Y. Zhang,  X. Zhang,  Y. Zhao,  
 B. R. Brooks,  G. K. L. Chan,  D. M. Chipman,  C. J. Cramer,  
 W. A. Goddard III,  M. S. Gordon,  W. J. Hehre,  A. Klamt,  
 H. F. Schaefer III,  M. W. Schmidt,  C. D. Sherrill,  D. G. Truhlar,  
 A. Warshel,  X. Xu,  A. Aspuru-Guzik,  R. Baer,  A. T. Bell,  N. A. Besley,  
 J.-D. Chai,  A. Dreuw,  B. D. Dunietz,  T. R. Furlani,  S. R. Gwaltney,  
 C.-P. Hsu,  Y. Jung,  J. Kong,  D. S. Lambrecht,  W. Liang,  C. Ochsenfeld,  
 V. A. Rassolov,  L. V. Slipchenko,  J. E. Subotnik,  T. Van Voorhis,  
 J. M. Herbert,  A. I. Krylov,  P. M. W. Gill,  M. Head-Gordon

 Contributors to earlier versions of Q-Chem not listed above: 
 R. D. Adamson,  J. Baker,  E. F. C. Byrd,  A. K. Chakraborty,  C.-L. Cheng,  
 H. Dachsel,  R. J. Doerksen,  G. Hawkins,  A. Heyden,  S. Hirata,  
 G. Kedziora,  F. J. Keil,  C. Kelley,  P. P. Korambath,  W. Kurlancheek,  
 A. M. Lee,  M. S. Lee,  D. Liotard,  I. Lotan,  P. E. Maslen,  N. Nair,  
 D. Neuhauser,  R. Olson,  B. Peters,  J. Ritchie,  N. E. Schultz,  
 N. Shenvi,  A. C. Simmonett,  K. S. Thanthiriwatte,  Q. Wu,  W. Zhang

 Please cite Q-Chem as follows:
 Y. Shao et al., Mol. Phys. 113, 184-215 (2014)
 DOI: 10.1080/00268976.2014.952696

 Q-Chem 4.3.0 for Mac (Intel) OS X

 Parts of Q-Chem use Armadillo 4.550.3 (Singapore Sling Deluxe).
 http://arma.sourceforge.net/

 Q-Chem begins on Mon May  4 10:23:15 2015  

mc-wireless-pittnet-150-212-10-248.wireless.pitt.edu
Host: 0

     Scratch files written to /Users/albrecht/scratch/qchem/qchem70111//
 Apr2815 |Users|albrecht|opt|build|qchem|4.3|trunk_RNUM -1
 Using version located at /Users/albrecht/opt/build/qchem/4.3/trunk_release/bin/qchem

Processing $rem in /Users/albrecht/.qchemrc.
    geom_opt_tol_gradient       30      ! Override default 300
    geom_opt_tol_displacement   120     ! Override default 1200
    geom_opt_tol_energy         10      ! Override default 100
    geom_opt_max_cycles         500     ! Override default 50
    symmetry              false
    sym_ignore            true

Total Memory Limit in MB = 2000
Mega-Array Size in MB = 62

Checking the input file for inconsistencies...	...done.
Finally everything over in PARseQInput

--------------------------------------------------------------
User input:
--------------------------------------------------------------
$comment
Test whether we can read guess after pFNO calc
$end

$molecule
0 1
O
H 1 0.95
H 1 0.95 2 104.5
$end

$rem
exchange hf
basis 6-31G
occupations 2
$end

--------------------------------------------------------------
 ----------------------------------------------------------------
             Standard Nuclear Orientation (Angstroms)
    I     Atom           X                Y                Z
 ----------------------------------------------------------------
    1      O       0.0000000000     0.0000000000     0.0000000000
    2      H       0.0000000000     0.0000000000     0.9500000000
    3      H       0.9197402584     0.0000000000    -0.2378610039
 ----------------------------------------------------------------
 Nuclear Repulsion Energy =     9.2647005966 hartrees
 There are        5 alpha and        5 beta electrons
 Requested basis set is 6-31G
 There are 7 shells and 13 basis functions

Total QAlloc Memory Limit   2000 MB
Mega-Array Size        61 MB
MEM_STATIC part        62 MB

finished with qalloc call

                       Distance Matrix (Angstroms)
             O (  1)   H (  2)
   H (  2)  0.950000
   H (  3)  0.950000  1.502310

 Job number = 2, Threshold = 1.00E-08
Integral type ranges set in mkLRange.C for JobNum: 2  <1-6|1-6>
Symmetry turned off temporarily
 Using the largest function pair in Schwarz integrals
Total number of integrals generated =             943
Symmetry turned back on
 A cutoff of  1.0D-08 yielded     28 shell pairs
 There are       103 function pairs
 Job number = 11, Threshold = 1.00E-08
Integral type ranges set in mkLRange.C for JobNum: 11  <1-6|7-7>

 -------------------------------------------------------
 OpenMP Integral Computing Module                       
 Release: version 1.0, May 2013, Q-Chem Inc. Pittsburgh 
 -------------------------------------------------------
 Integral Job Info:
 Integral job number is                      11
 Integral operator is                         1
 short-range coefficients               -999999
 long-range coefficients                -999999
 Omega coefficients                           0
 if combine SR and LR in K              -999999
 Integral screening is                        0
 Integral computing path is                   2
 max size of driver memory is            800000
 size of driver memory is                 45569
 size of scratch memory is              1939132
 max col of scratch BK array                289
 max len of scratch array in speh3           22
 max len of scratch index in speh4            8
 max int batch size is                      520
 min int batch size is                       52
 fixed nKL is                                52
 max L of basis functions is                  1
 order of int derivative is                   0
 number of shells is                          7
 number of basis is                          13
 number of cartesian basis is                13
 number of contracted shell pairs            28
 number of primitive shell pairs            180
 maxK2 (contraction) of shell pair           36
 max number of K2 of shell pair               1
 max number of CS2 of shell pair              4
 max number of PS2 of shell pair             36
 mem total for path MDJ                    6006
 -------------------------------------------------------
 Smallest overlap matrix eigenvalue = 6.67E-02
 Multipole matrices computed through 2nd order

  Scale SEOQF with 1.000000e+00/1.000000e+00/1.000000e+00

 Standard Electronic Orientation quadrupole field applied
 Nucleus-field energy     =    -0.0000000007 hartrees
 Guess from superposition of atomic densities
 Warning:  Energy on first SCF cycle will be non-variational
scfman initvdwdat 

-------------------------------------------------
Fractional occupation number algorithm turned on.
-------------------------------------------------

Initial Temperature =   1000.000 K
Final Temperature =      0.000 K
-------------------------------------------------

 A restricted Hartree-Fock SCF calculation will be
 performed using Pulay DIIS extrapolation
 SCF converges when DIIS error is below 1.0E-05
Finding J and K together
 Job number = 22, Threshold = 1.00E-08
Integral type ranges set in mkLRange.C for JobNum: 22  <1-6|1-6>
Storing 33946.64% of integrals
Total number of integrals generated =            5776
 MakeJK  time:  CPU       0.01 s  wall       0.01 s
Fock build time:  0.01 s (CPU) 0.01 s (wall)
DIIS Errors:  Max 1.04E+00 RMS 2.60E-01

Current DIIS subspace size = 1
REM_GRID_RESTART_DIIS = 0


---- Fractional Occupation Number Information ----
Temperature =   1000.000 K
Fermi level =  -0.174504 Hartree
HOMO-LUMO gap =   0.587848 Hartree
Number of active orbitals = 8
Number of active electrons = 4
EMax =   2.60e-01
thresh =   1.00e-04
Generating Pseudo-Fermi distribution of occupation numbers.
--
# Rescaled active electrons =      4.000
Writing occupation numbers to disk ...
---- Fractional Occupation Number Information End ----

 ---------------------------------------
  Cycle       Energy         DIIS Error
 ---------------------------------------
    1     -75.9249379244      2.60E-01  00000
Finding J and K together
 Job number = 22, Threshold = 1.00E-08
Integral type ranges set in mkLRange.C for JobNum: 22  <1-6|1-6>
Storing 33946.64% of integrals
Reusing in-core integrals buffer for job 22
 MakeJK  time:  CPU       0.00 s  wall       0.00 s
Fock build time:  0.00 s (CPU) 0.00 s (wall)
DIIS Errors:  Max 1.71E-01 RMS 4.32E-02

Current DIIS subspace size = 2
REM_GRID_RESTART_DIIS = 0


---- Fractional Occupation Number Information ----
Temperature =    900.000 K
Fermi level =  -0.106377 Hartree
HOMO-LUMO gap =   0.630597 Hartree
Number of active orbitals = 8
Number of active electrons = 4
EMax =   4.32e-02
thresh =   1.00e-04
Generating Pseudo-Fermi distribution of occupation numbers.
--
# Rescaled active electrons =      4.000
Writing occupation numbers to disk ...
---- Fractional Occupation Number Information End ----

    2     -75.9482577783      4.32E-02  00000
Finding J and K together
 Job number = 22, Threshold = 1.00E-08
Integral type ranges set in mkLRange.C for JobNum: 22  <1-6|1-6>
Storing 33946.64% of integrals
Reusing in-core integrals buffer for job 22
 MakeJK  time:  CPU       0.00 s  wall       0.00 s
Fock build time:  0.00 s (CPU) 0.00 s (wall)
DIIS Errors:  Max 1.16E-01 RMS 2.24E-02

Current DIIS subspace size = 3
REM_GRID_RESTART_DIIS = 0


---- Fractional Occupation Number Information ----
Temperature =    810.000 K
Fermi level =  -0.152165 Hartree
HOMO-LUMO gap =   0.705165 Hartree
Number of active orbitals = 8
Number of active electrons = 4
EMax =   2.24e-02
thresh =   1.00e-04
Generating Pseudo-Fermi distribution of occupation numbers.
--
# Rescaled active electrons =      4.000
Writing occupation numbers to disk ...
---- Fractional Occupation Number Information End ----

    3     -75.9763221088      2.24E-02  00000
Finding J and K together
 Job number = 22, Threshold = 1.00E-08
Integral type ranges set in mkLRange.C for JobNum: 22  <1-6|1-6>
Storing 33946.64% of integrals
Reusing in-core integrals buffer for job 22
 MakeJK  time:  CPU       0.00 s  wall       0.00 s
Fock build time:  0.01 s (CPU) 0.01 s (wall)
DIIS Errors:  Max 1.01E-02 RMS 2.17E-03

Current DIIS subspace size = 4
REM_GRID_RESTART_DIIS = 0


---- Fractional Occupation Number Information ----
Temperature =    729.000 K
Fermi level =  -0.147329 Hartree
HOMO-LUMO gap =   0.705817 Hartree
Number of active orbitals = 8
Number of active electrons = 4
EMax =   2.17e-03
thresh =   1.00e-04
Generating Pseudo-Fermi distribution of occupation numbers.
--
# Rescaled active electrons =      4.000
Writing occupation numbers to disk ...
---- Fractional Occupation Number Information End ----

    4     -75.9838203329      2.17E-03  00000
Finding J and K together
 Job number = 22, Threshold = 1.00E-08
Integral type ranges set in mkLRange.C for JobNum: 22  <1-6|1-6>
Storing 33946.64% of integrals
Reusing in-core integrals buffer for job 22
 MakeJK  time:  CPU       0.00 s  wall       0.00 s
Fock build time:  0.00 s (CPU) 0.00 s (wall)
DIIS Errors:  Max 2.51E-03 RMS 3.74E-04

Current DIIS subspace size = 5
REM_GRID_RESTART_DIIS = 0


---- Fractional Occupation Number Information ----
Temperature =    656.100 K
Fermi level =  -0.148067 Hartree
HOMO-LUMO gap =   0.707060 Hartree
Number of active orbitals = 8
Number of active electrons = 4
EMax =   3.74e-04
thresh =   1.00e-04
Generating Pseudo-Fermi distribution of occupation numbers.
--
# Rescaled active electrons =      4.000
Writing occupation numbers to disk ...
---- Fractional Occupation Number Information End ----

    5     -75.9839661435      3.74E-04  00000
Finding J and K together
 Job number = 22, Threshold = 1.00E-08
Integral type ranges set in mkLRange.C for JobNum: 22  <1-6|1-6>
Storing 33946.64% of integrals
Reusing in-core integrals buffer for job 22
 MakeJK  time:  CPU       0.00 s  wall       0.00 s
Fock build time:  0.00 s (CPU) 0.00 s (wall)
DIIS Errors:  Max 3.59E-04 RMS 5.77E-05

Current DIIS subspace size = 6
REM_GRID_RESTART_DIIS = 0


---- Fractional Occupation Number Information ----
Temperature =    590.490 K
Fermi level =  -0.148180 Hartree
HOMO-LUMO gap =   0.707236 Hartree
Number of active orbitals = 8
Number of active electrons = 4
EMax =   5.77e-05
thresh =   1.00e-04
---- Fractional Occupation Number Information End ----

    6     -75.9839718696      5.77E-05  00000
Finding J and K together
 Job number = 22, Threshold = 1.00E-08
Integral type ranges set in mkLRange.C for JobNum: 22  <1-6|1-6>
Storing 33946.64% of integrals
Reusing in-core integrals buffer for job 22
 MakeJK  time:  CPU       0.00 s  wall       0.00 s
Fock build time:  0.00 s (CPU) 0.00 s (wall)
DIIS Errors:  Max 2.73E-05 RMS 5.32E-06

Current DIIS subspace size = 7
REM_GRID_RESTART_DIIS = 0


---- Fractional Occupation Number Information ----
Temperature =    590.490 K
Fermi level =  -0.148179 Hartree
HOMO-LUMO gap =   0.707238 Hartree
Number of active orbitals = 8
Number of active electrons = 4
EMax =   5.32e-06
thresh =   1.00e-04
---- Fractional Occupation Number Information End ----

    7     -75.9839720208      5.32E-06  00000 Convergence criterion met
 ---------------------------------------
 SCF time:  CPU 0.04 s  wall 0.04 s
 SCF   energy in the final basis set = -75.9839720208
 Total energy in the final basis set = -75.9839720208
Symmetry turned off temporarily
 Analysis of SCF Wavefunction

 --------------------------------------------------------------

                    Orbital Energies (a.u.)
 --------------------------------------------------------------

 Alpha MOs
 -- Occupied --
-20.559  -1.360  -0.714  -0.562  -0.502
 -- Virtual --
  0.205   0.302   1.060   1.164   1.197   1.216   1.382   1.696
 --------------------------------------------------------------

          Ground-State Mulliken Net Atomic Charges

     Atom                 Charge (a.u.)
  ----------------------------------------
      1 O                    -0.790036
      2 H                     0.395018
      3 H                     0.395018
  ----------------------------------------
  Sum of atomic charges =     0.000000

 -----------------------------------------------------------------
                    Cartesian Multipole Moments
 -----------------------------------------------------------------
    Charge (ESU x 10^10)
                 0.0000
    Dipole Moment (Debye)
         X       2.0776      Y       0.0000      Z       1.6086
       Tot       2.6276
    Quadrupole Moments (Debye-Ang)
        XX      -5.0391     XY       0.0000     YY      -7.1894
        XZ      -0.6320     YZ       0.0000     ZZ      -4.7122
    Octopole Moments (Debye-Ang^2)
       XXX       0.4966    XXY       0.0000    XYY      -0.3039
       YYY       0.0000    XXZ      -0.5888    XYZ      -0.0000
       YYZ      -0.2353    XZZ      -0.2042    YZZ       0.0000
       ZZZ       0.8153
    Hexadecapole Moments (Debye-Ang^3)
      XXXX      -5.0650   XXXY       0.0000   XXYY      -1.9565
      XYYY       0.0000   YYYY      -5.1606   XXXZ      -0.2529
      XXYZ       0.0000   XYYZ       0.0443   YYYZ       0.0000
      XXZZ      -2.1083   XYZZ       0.0000   YYZZ      -1.9794
      XZZZ       0.1068   YZZZ       0.0000   ZZZZ      -4.9894
 -----------------------------------------------------------------
 JobOver = TRUE
Archival summary:
1\1\mc-wireless-pittnet-150-212-10-248.wireless.pitt.edu\SP\HF\6-31G\12\MonMay410:23:152015MonMay410:23:152015\0\\#,HF,6-31G,\\0,1\O\H,1,0.95\H,1,0.95,2,104.5\\HF=-75.983972\\@

 Total job time:  0.09s(wall), 0.08s(cpu) 
 Mon May  4 10:23:15 2015

        *************************************************************
        *                                                           *
        *  Thank you very much for using Q-Chem.  Have a nice day.  *
        *                                                           *
        *************************************************************


*** MISSION COMPLETED -- STARFLEET OUT ***

 
User input: 2 of 2 
 
                  Welcome to Q-Chem
     A Quantum Leap Into The Future Of Chemistry


 Q-Chem 4.3 (beta), Q-Chem, Inc., Pleasanton, CA (2015)

 Y. Shao,  Z. Gan,  E. Epifanovsky,  A. T. B. Gilbert,  M. Wormit,  
 J. Kussmann,  A. W. Lange,  A. Behn,  J. Deng,  X. Feng,  D. Ghosh,  
 M. Goldey,  P. R. Horn,  L. D. Jacobson,  I. Kaliman,  R. Z. Khaliullin,  
 T. Kus,  A. Landau,  J. Liu,  E. I. Proynov,  Y. M. Rhee,  R. M. Richard,  
 M. A. Rohrdanz,  R. P. Steele,  E. J. Sundstrom,  H. L. Woodcock III,  
 P. M. Zimmerman,  D. Zuev,  B. Albrecht,  E. Alguire,  B. Austin,  
 S. A. Baeppler,  G. J. O. Beran,  Y. A. Bernard,  E. Berquist,  
 K. Brandhorst,  K. B. Bravaya,  S. T. Brown,  D. Casanova,  C.-M. Chang,  
 Y. Chen,  S. H. Chien,  K. D. Closser,  D. L. Crittenden,  M. Diedenhofen,  
 R. A. DiStasio Jr.,  H. Do,  A. D. Dutoi,  R. G. Edgar,  P.-T. Fang,  
 S. Fatehi,  Q. Feng,  L. Fusti-Molnar,  A. Ghysels,  
 A. Golubeva-Zadorozhnaya,  J. Gomes,  A. Gunina,  M. W. D. Hanson-Heine,  
 P. H. P. Harbach,  A. W. Hauser,  E. G. Hohenstein,  Z. C. Holden,  K. Hui,  
 T.-C. Jagau,  H. Ji,  B. Kaduk,  K. Khistyaev,  Jaehoon Kim,  Jihan Kim,  
 R. A. King,  P. Klunzinger,  D. Kosenkov,  T. Kowalczyk,  C. M. Krauter,  
 K. U. Lao,  A. Laurent,  K. V. Lawler,  S. Lehtola,  S. V. Levchenko,  
 C. Y. Lin,  Y.-S. Lin,  F. Liu,  E. Livshits,  R. C. Lochan,  A. Luenser,  
 P. Manohar,  S. F. Manzer,  S.-P. Mao,  N. Mardirossian,  A. V. Marenich,  
 L. A. Martinez-Martinez,  S. A. Maurer,  N. J. Mayhall,  K. Nanda,  
 C. M. Oana,  R. Olivares-Amaya,  D. P. O'Neill,  J. A. Parkhill,  
 T. M. Perrine,  R. Peverati,  P. A. Pieniazek,  F. Plasser,  A. Prociuk,  
 D. R. Rehn,  E. Rosta,  N. J. Russ,  N. Sergueev,  S. M. Sharada,  
 S. Sharma,  D. W. Small,  A. Sodt,  T. Stauch,  T. Stein,  D. Stuck,  
 Y.-C. Su,  A. J. W. Thom,  T. Tsuchimochi,  L. Vogt,  O. Vydrov,  T. Wang,  
 M. A. Watson,  J. Wenzel,  A. White,  C. F. Williams,  V. Vanovschi,  
 S. Yeganeh,  S. R. Yost,  Z.-Q. You,  I. Y. Zhang,  X. Zhang,  Y. Zhao,  
 B. R. Brooks,  G. K. L. Chan,  D. M. Chipman,  C. J. Cramer,  
 W. A. Goddard III,  M. S. Gordon,  W. J. Hehre,  A. Klamt,  
 H. F. Schaefer III,  M. W. Schmidt,  C. D. Sherrill,  D. G. Truhlar,  
 A. Warshel,  X. Xu,  A. Aspuru-Guzik,  R. Baer,  A. T. Bell,  N. A. Besley,  
 J.-D. Chai,  A. Dreuw,  B. D. Dunietz,  T. R. Furlani,  S. R. Gwaltney,  
 C.-P. Hsu,  Y. Jung,  J. Kong,  D. S. Lambrecht,  W. Liang,  C. Ochsenfeld,  
 V. A. Rassolov,  L. V. Slipchenko,  J. E. Subotnik,  T. Van Voorhis,  
 J. M. Herbert,  A. I. Krylov,  P. M. W. Gill,  M. Head-Gordon

 Contributors to earlier versions of Q-Chem not listed above: 
 R. D. Adamson,  J. Baker,  E. F. C. Byrd,  A. K. Chakraborty,  C.-L. Cheng,  
 H. Dachsel,  R. J. Doerksen,  G. Hawkins,  A. Heyden,  S. Hirata,  
 G. Kedziora,  F. J. Keil,  C. Kelley,  P. P. Korambath,  W. Kurlancheek,  
 A. M. Lee,  M. S. Lee,  D. Liotard,  I. Lotan,  P. E. Maslen,  N. Nair,  
 D. Neuhauser,  R. Olson,  B. Peters,  J. Ritchie,  N. E. Schultz,  
 N. Shenvi,  A. C. Simmonett,  K. S. Thanthiriwatte,  Q. Wu,  W. Zhang

 Please cite Q-Chem as follows:
 Y. Shao et al., Mol. Phys. 113, 184-215 (2014)
 DOI: 10.1080/00268976.2014.952696

 Q-Chem 4.3.0 for Mac (Intel) OS X

 Parts of Q-Chem use Armadillo 4.550.3 (Singapore Sling Deluxe).
 http://arma.sourceforge.net/

 Q-Chem begins on Mon May  4 10:23:15 2015  

mc-wireless-pittnet-150-212-10-248.wireless.pitt.edu
Host: 0

     Scratch files written to /Users/albrecht/scratch/qchem/qchem70111//
 Apr2815 |Users|albrecht|opt|build|qchem|4.3|trunk_RNUM -1
 Using version located at /Users/albrecht/opt/build/qchem/4.3/trunk_release/bin/qchem

Processing $rem in /Users/albrecht/.qchemrc.
    geom_opt_tol_gradient       30      ! Override default 300
    geom_opt_tol_displacement   120     ! Override default 1200
    geom_opt_tol_energy         10      ! Override default 100
    geom_opt_max_cycles         500     ! Override default 50
    symmetry              false
    sym_ignore            true

Total Memory Limit in MB = 2000
Mega-Array Size in MB = 62

Checking the input file for inconsistencies...	...done.
Finally everything over in PARseQInput

--------------------------------------------------------------
User input:
--------------------------------------------------------------

$molecule
read
$end

$rem
scf_guess read
exchange hf
basis 6-31G
!occupations 2
$end
--------------------------------------------------------------
 ----------------------------------------------------------------
             Standard Nuclear Orientation (Angstroms)
    I     Atom           X                Y                Z
 ----------------------------------------------------------------
    1      O       0.0000000000     0.0000000000     0.0000000000
    2      H       0.0000000000     0.0000000000     0.9500000000
    3      H       0.9197402584     0.0000000000    -0.2378610039
 ----------------------------------------------------------------
 Nuclear Repulsion Energy =     9.2647005966 hartrees
 There are        5 alpha and        5 beta electrons
 Requested basis set is 6-31G
 There are 7 shells and 13 basis functions

Total QAlloc Memory Limit   2000 MB
Mega-Array Size        61 MB
MEM_STATIC part        62 MB

finished with qalloc call

                       Distance Matrix (Angstroms)
             O (  1)   H (  2)
   H (  2)  0.950000
   H (  3)  0.950000  1.502310

 Job number = 2, Threshold = 1.00E-08
Integral type ranges set in mkLRange.C for JobNum: 2  <1-6|1-6>
Symmetry turned off temporarily
 Using the largest function pair in Schwarz integrals
Total number of integrals generated =             943
Symmetry turned back on
 A cutoff of  1.0D-08 yielded     28 shell pairs
 There are       103 function pairs
 Job number = 11, Threshold = 1.00E-08
Integral type ranges set in mkLRange.C for JobNum: 11  <1-6|7-7>

 -------------------------------------------------------
 OpenMP Integral Computing Module                       
 Release: version 1.0, May 2013, Q-Chem Inc. Pittsburgh 
 -------------------------------------------------------
 Integral Job Info:
 Integral job number is                      11
 Integral operator is                         1
 short-range coefficients               -999999
 long-range coefficients                -999999
 Omega coefficients                           0
 if combine SR and LR in K              -999999
 Integral screening is                        0
 Integral computing path is                   2
 max size of driver memory is            800000
 size of driver memory is                 45569
 size of scratch memory is              1939132
 max col of scratch BK array                289
 max len of scratch array in speh3           22
 max len of scratch index in speh4            8
 max int batch size is                      520
 min int batch size is                       52
 fixed nKL is                                52
 max L of basis functions is                  1
 order of int derivative is                   0
 number of shells is                          7
 number of basis is                          13
 number of cartesian basis is                13
 number of contracted shell pairs            28
 number of primitive shell pairs            180
 maxK2 (contraction) of shell pair           36
 max number of K2 of shell pair               1
 max number of CS2 of shell pair              4
 max number of PS2 of shell pair             36
 mem total for path MDJ                    6006
 -------------------------------------------------------
 Smallest overlap matrix eigenvalue = 6.67E-02
 Multipole matrices computed through 2nd order

  Scale SEOQF with 1.000000e+00/1.000000e+00/1.000000e+00

 Standard Electronic Orientation quadrupole field applied
 Nucleus-field energy     =    -0.0000000007 hartrees
 Guess MOs from SCF MO coefficient file
 Reading MOs from coefficient file
 Reading MOs from coefficient file
scfman initvdwdat 
 A restricted Hartree-Fock SCF calculation will be
 performed using Pulay DIIS extrapolation
 SCF converges when DIIS error is below 1.0E-05
Finding J and K together
 Job number = 22, Threshold = 1.00E-08
Integral type ranges set in mkLRange.C for JobNum: 22  <1-6|1-6>
Storing 33946.64% of integrals
Total number of integrals generated =            5776
 MakeJK  time:  CPU       0.01 s  wall       0.01 s
Fock build time:  0.01 s (CPU) 0.01 s (wall)
DIIS Errors:  Max 3.32E-06 RMS 9.79E-07

Current DIIS subspace size = 1
REM_GRID_RESTART_DIIS = 0

 ---------------------------------------
  Cycle       Energy         DIIS Error
 ---------------------------------------
    1     -75.9839720218      9.79E-07  00000
Finding J and K together
 Job number = 22, Threshold = 1.00E-08
Integral type ranges set in mkLRange.C for JobNum: 22  <1-6|1-6>
Storing 33946.64% of integrals
Reusing in-core integrals buffer for job 22
 MakeJK  time:  CPU       0.00 s  wall       0.00 s
Fock build time:  0.00 s (CPU) 0.00 s (wall)
DIIS Errors:  Max 1.30E-06 RMS 4.32E-07

Current DIIS subspace size = 2
REM_GRID_RESTART_DIIS = 0

    2     -75.9839720219      4.32E-07  00000 Convergence criterion met
 ---------------------------------------
 SCF time:  CPU 0.01 s  wall 0.01 s
 SCF   energy in the final basis set = -75.9839720219
 Total energy in the final basis set = -75.9839720219
Symmetry turned off temporarily
 Analysis of SCF Wavefunction

 --------------------------------------------------------------

                    Orbital Energies (a.u.)
 --------------------------------------------------------------

 Alpha MOs
 -- Occupied --
-20.559  -1.360  -0.714  -0.562  -0.502
 -- Virtual --
  0.205   0.302   1.060   1.164   1.197   1.216   1.382   1.696
 --------------------------------------------------------------

          Ground-State Mulliken Net Atomic Charges

     Atom                 Charge (a.u.)
  ----------------------------------------
      1 O                    -0.790037
      2 H                     0.395019
      3 H                     0.395019
  ----------------------------------------
  Sum of atomic charges =     0.000000

 -----------------------------------------------------------------
                    Cartesian Multipole Moments
 -----------------------------------------------------------------
    Charge (ESU x 10^10)
                 0.0000
    Dipole Moment (Debye)
         X       2.0776      Y      -0.0000      Z       1.6087
       Tot       2.6276
    Quadrupole Moments (Debye-Ang)
        XX      -5.0391     XY       0.0000     YY      -7.1894
        XZ      -0.6320     YZ      -0.0000     ZZ      -4.7122
    Octopole Moments (Debye-Ang^2)
       XXX       0.4967    XXY       0.0000    XYY      -0.3039
       YYY       0.0000    XXZ      -0.5888    XYZ      -0.0000
       YYZ      -0.2353    XZZ      -0.2042    YZZ       0.0000
       ZZZ       0.8153
    Hexadecapole Moments (Debye-Ang^3)
      XXXX      -5.0649   XXXY       0.0000   XXYY      -1.9565
      XYYY       0.0000   YYYY      -5.1606   XXXZ      -0.2528
      XXYZ      -0.0000   XYYZ       0.0443   YYYZ      -0.0000
      XXZZ      -2.1083   XYZZ       0.0000   YYZZ      -1.9794
      XZZZ       0.1068   YZZZ      -0.0000   ZZZZ      -4.9894
 -----------------------------------------------------------------
 JobOver = TRUE
Archival summary:
1\1\mc-wireless-pittnet-150-212-10-248.wireless.pitt.edu\SP\HF\6-31G\12\MonMay410:23:152015MonMay410:23:152015\0\\#,HF,6-31G,\\0,1\O\H,1,0.95\H,1,0.95,2,104.5\\HF=-75.983972\\@

 Total job time:  0.06s(wall), 0.05s(cpu) 
 Mon May  4 10:23:15 2015

        *************************************************************
        *                                                           *
        *  Thank you very much for using Q-Chem.  Have a nice day.  *
        *                                                           *
        *************************************************************


*** MISSION COMPLETED -- STARFLEET OUT ***

