                  Welcome to Q-Chem
     A Quantum Leap Into The Future Of Chemistry


 Q-Chem 4.3 (beta), Q-Chem, Inc., Pleasanton, CA (2015)

 Y. Shao,  Z. Gan,  E. Epifanovsky,  A. T. B. Gilbert,  M. Wormit,  
 J. Kussmann,  A. W. Lange,  A. Behn,  J. Deng,  X. Feng,  D. Ghosh,  
 M. Goldey,  P. R. Horn,  L. D. Jacobson,  I. Kaliman,  R. Z. Khaliullin,  
 T. Kus,  A. Landau,  J. Liu,  E. I. Proynov,  Y. M. Rhee,  R. M. Richard,  
 M. A. Rohrdanz,  R. P. Steele,  E. J. Sundstrom,  H. L. Woodcock III,  
 P. M. Zimmerman,  D. Zuev,  B. Albrecht,  E. Alguire,  B. Austin,  
 S. A. Baeppler,  G. J. O. Beran,  Y. A. Bernard,  E. Berquist,  
 K. Brandhorst,  K. B. Bravaya,  S. T. Brown,  D. Casanova,  C.-M. Chang,  
 Y. Chen,  S. H. Chien,  K. D. Closser,  D. L. Crittenden,  M. Diedenhofen,  
 R. A. DiStasio Jr.,  H. Do,  A. D. Dutoi,  R. G. Edgar,  P.-T. Fang,  
 S. Fatehi,  Q. Feng,  L. Fusti-Molnar,  A. Ghysels,  
 A. Golubeva-Zadorozhnaya,  J. Gomes,  A. Gunina,  M. W. D. Hanson-Heine,  
 P. H. P. Harbach,  A. W. Hauser,  E. G. Hohenstein,  Z. C. Holden,  K. Hui,  
 T.-C. Jagau,  H. Ji,  B. Kaduk,  K. Khistyaev,  Jaehoon Kim,  Jihan Kim,  
 R. A. King,  P. Klunzinger,  D. Kosenkov,  T. Kowalczyk,  C. M. Krauter,  
 K. U. Lao,  A. Laurent,  K. V. Lawler,  S. Lehtola,  S. V. Levchenko,  
 C. Y. Lin,  Y.-S. Lin,  F. Liu,  E. Livshits,  R. C. Lochan,  A. Luenser,  
 P. Manohar,  S. F. Manzer,  S.-P. Mao,  N. Mardirossian,  A. V. Marenich,  
 L. A. Martinez-Martinez,  S. A. Maurer,  N. J. Mayhall,  K. Nanda,  
 C. M. Oana,  R. Olivares-Amaya,  D. P. O'Neill,  J. A. Parkhill,  
 T. M. Perrine,  R. Peverati,  P. A. Pieniazek,  F. Plasser,  A. Prociuk,  
 D. R. Rehn,  E. Rosta,  N. J. Russ,  N. Sergueev,  S. M. Sharada,  
 S. Sharma,  D. W. Small,  A. Sodt,  T. Stauch,  T. Stein,  D. Stuck,  
 Y.-C. Su,  A. J. W. Thom,  T. Tsuchimochi,  L. Vogt,  O. Vydrov,  T. Wang,  
 M. A. Watson,  J. Wenzel,  A. White,  C. F. Williams,  V. Vanovschi,  
 S. Yeganeh,  S. R. Yost,  Z.-Q. You,  I. Y. Zhang,  X. Zhang,  Y. Zhao,  
 B. R. Brooks,  G. K. L. Chan,  D. M. Chipman,  C. J. Cramer,  
 W. A. Goddard III,  M. S. Gordon,  W. J. Hehre,  A. Klamt,  
 H. F. Schaefer III,  M. W. Schmidt,  C. D. Sherrill,  D. G. Truhlar,  
 A. Warshel,  X. Xu,  A. Aspuru-Guzik,  R. Baer,  A. T. Bell,  N. A. Besley,  
 J.-D. Chai,  A. Dreuw,  B. D. Dunietz,  T. R. Furlani,  S. R. Gwaltney,  
 C.-P. Hsu,  Y. Jung,  J. Kong,  D. S. Lambrecht,  W. Liang,  C. Ochsenfeld,  
 V. A. Rassolov,  L. V. Slipchenko,  J. E. Subotnik,  T. Van Voorhis,  
 J. M. Herbert,  A. I. Krylov,  P. M. W. Gill,  M. Head-Gordon

 Contributors to earlier versions of Q-Chem not listed above: 
 R. D. Adamson,  J. Baker,  E. F. C. Byrd,  A. K. Chakraborty,  C.-L. Cheng,  
 H. Dachsel,  R. J. Doerksen,  G. Hawkins,  A. Heyden,  S. Hirata,  
 G. Kedziora,  F. J. Keil,  C. Kelley,  P. P. Korambath,  W. Kurlancheek,  
 A. M. Lee,  M. S. Lee,  D. Liotard,  I. Lotan,  P. E. Maslen,  N. Nair,  
 D. Neuhauser,  R. Olson,  B. Peters,  J. Ritchie,  N. E. Schultz,  
 N. Shenvi,  A. C. Simmonett,  K. S. Thanthiriwatte,  Q. Wu,  W. Zhang

 Please cite Q-Chem as follows:
 Y. Shao et al., Mol. Phys. 113, 184-215 (2014)
 DOI: 10.1080/00268976.2014.952696

 Q-Chem 4.3.0 for Intel X86 EM64T Linux

 Parts of Q-Chem use Armadillo 4.550.3 (Singapore Sling Deluxe).
 http://arma.sourceforge.net/

 Q-Chem begins on Wed Apr 29 15:36:46 2015  

Host: 
0

     Scratch files written to /home/ben/scratch/qchem/plt-spin//
 Mar2415 |home|ben|opt|apps|qchem|trunk_RNUM -1

Checking the input file for inconsistencies...	...done.

--------------------------------------------------------------
User input:
--------------------------------------------------------------
$molecule
    0 2
    C      0.5257302888    0.1305985181    0.0100075403
    O      1.6234821038    0.8582166421    0.2896131034
    O      0.5715967501   -1.0214087362   -0.3893783015
    C     -0.7155727511    0.8598973750    0.2268124796
    Si    -2.3393648031    0.0227472458   -0.1601739944
    H     -2.5124025840   -1.1865087651    0.6819568820
    H     -2.3944211453   -0.3586757098   -1.5929845255
    H     -3.4340276049    0.9833633295    0.1315672317
    H     -0.6408677524    1.8719020689    0.6148270982
    C      2.8640787035    0.1859487872    0.0826815751
    H      3.6365413555    0.9355310263    0.2480977639
    H      2.9201151248   -0.2125681654   -0.9323655631
    H      2.9789329064   -0.6374860773    0.7923212322
$end

$rem
    jobtype                     sp
    exchange                    omegaB97X-D
    basis                       6-311++G(3df,3pd)
    unrestricted                true
    scf_algorithm               diis
    make_cube_files             true
    plot_spin_density           true
$end

$plots
    Plot stuff
    100 -5.0 5.0
    100 -5.0 5.0
    100 -5.0 5.0
    0 1 0 0
    0
$end


--------------------------------------------------------------
 ----------------------------------------------------------------
             Standard Nuclear Orientation (Angstroms)
    I     Atom           X                Y                Z
 ----------------------------------------------------------------
    1      C       0.5006234175    -0.0177146200     0.0139517911
    2      O       1.6335038645     0.7096056924    -0.0019701597
    3      O       0.4899529266    -1.2377984767     0.0178273824
    4      C      -0.7045819868     0.7990843546     0.0197664081
    5      Si     -2.3713325705    -0.0425103728    -0.0108979729
    6      H      -2.5424824376    -0.8968116820     1.1900614696
    7      H      -2.5077429292    -0.8722919074    -1.2333199576
    8      H      -3.4190619687     1.0103036296    -0.0162493806
    9      H      -0.5786116066     1.8778140994     0.0473939784
   10      C       2.8403214887    -0.0501303969    -0.0173632084
   11      H       3.6436607379     0.6753309469    -0.1368893013
   12      H       2.8344219878    -0.7633611507    -0.8441301783
   13      H       2.9626403578    -0.5977324683     0.9207172639
 ----------------------------------------------------------------
 Molecular Point Group                 C1    NOp =  1
 Largest Abelian Subgroup              C1    NOp =  1
 Nuclear Repulsion Energy =   283.7043277335 hartrees
 There are       28 alpha and       27 beta electrons
 Requested basis set is 6-311++G(3df,3pd)
 There are 117 shells and 368 basis functions

Total QAlloc Memory Limit   2000 MB
Mega-Array Size        61 MB
MEM_STATIC part        62 MB

                       Distance Matrix (Angstroms)
             C (  1)   O (  2)   O (  3)   C (  4)   Si(  5)   H (  6)
   O (  2)  1.346353
   O (  3)  1.220137  2.258425
   C (  4)  1.455924  2.339898  2.361315
   Si(  5)  2.872171  4.074859  3.101047  1.867426
   H (  6)  3.378837  4.630376  3.268955  2.761074  1.483721
   H (  7)  3.366936  4.600929  3.268814  2.759549  1.483732  2.423754
   H (  8)  4.052366  5.061526  4.509492  2.722923  1.485322  2.420881
   H (  9)  2.181489  2.502120  3.293895  1.086411  2.627716  3.586227
   C ( 10)  2.340132  1.426129  2.633634  3.645392  5.211664  5.581158
   H ( 11)  3.222072  2.014971  3.691866  4.352823  6.058986  6.519264
   H ( 12)  2.595941  2.078718  2.542557  3.963849  5.321070  5.750378
   H ( 13)  2.687038  2.080166  2.709073  4.026330  5.443110  5.519816
             H (  7)   H (  8)   H (  9)   C ( 10)   H ( 11)   H ( 12)
   H (  8)  2.419903
   H (  9)  3.595116  2.970654
   C ( 10)  5.545836  6.348575  3.925591
   H ( 11)  6.437163  7.071691  4.394031  1.089006
   H ( 12)  5.357430  6.552659  4.406747  1.091914  1.795798
   H ( 13)  5.885606  6.647542  4.408116  1.093080  1.789696  1.777234

 
 A cutoff of  1.0D-08 yielded   5486 shell pairs
 There are     54869 function pairs (     68454 Cartesian)
 
 -------------------------------------------------------
 OpenMP Integral Computing Module                       
 Release: version 1.0, May 2013, Q-Chem Inc. Pittsburgh 
 -------------------------------------------------------
 Integral Job Info:
 Integral job number is                      11
 Integral operator is                         1
 short-range coefficients              22203600
 long-range coefficients              100000000
 Omega coefficients                         200
 if combine SR and LR in K              -999999
 Integral screening is                        0
 Integral computing path is                   2
 max size of driver memory is            800000
 size of driver memory is                776718
 size of scratch memory is              4283136
 max col of scratch BK array              10000
 max len of scratch array in speh3          662
 max len of scratch index in speh4           32
 max int batch size is                      520
 min int batch size is                       52
 fixed nKL is                                52
 max L of basis functions is                  3
 order of int derivative is                   0
 number of shells is                        117
 number of basis is                         411
 number of cartesian basis is               411
 number of contracted shell pairs          5486
 number of primitive shell pairs          10006
 maxK2 (contraction) of shell pair           36
 max number of K2 of shell pair               1
 max number of CS2 of shell pair            586
 max number of PS2 of shell pair            792
 mem total for path MDJ                  139832
 -------------------------------------------------------
 Smallest overlap matrix eigenvalue = 1.25E-05

 Q-Chem warning in module /home/ben/opt/apps/qchem/trunk_intel_release/stvman/mkSTV.C, line 251:

 Overlap eigenvalue is smaller than square root of threshold


  Scale SEOQF with 1.000000e-01/1.000000e-01/1.000000e-01

 Standard Electronic Orientation quadrupole field applied
 Nucleus-field energy     =     0.0000000090 hartrees
 Guess from superposition of atomic densities
 Warning:  Energy on first SCF cycle will be non-variational
 Long-range K will be added via erf
 Coulomb attenuation parameter = 0.2 bohr**(-1)
 An unrestricted hybrid HF-DFT SCF calculation will be
 performed using Pulay DIIS extrapolation
 Exchange:     0.2220 Hartree-Fock + 1.0000 wB97X-D + LR-HF
 Correlation:  1.0000 wB97X-D
 Using SG-1 standard quadrature grid
 SCF converges when DIIS error is below 1.0E-05
 CPU 0.00 s  wall 0.00 s
 Inaccurate integrated density:
   Number of electrons =    55
   Numerical integral  =    51.403808724562
   Relative error      =    -6.5385295917 %
 CPU 3.56 s  wall 3.56 s

 Total DFTman time = 3.56 CPUs 3.56 Wall
 ---------------------------------------
  Cycle       Energy         DIIS Error
 ---------------------------------------
    1    -550.7295630356      1.95E-01
 CPU 0.00 s  wall 0.00 s
 CPU 4.69 s  wall 4.72 s

 Total DFTman time = 4.69 CPUs 4.72 Wall
    2    -491.9488128563      5.83E-02
 CPU 0.00 s  wall 0.00 s
 CPU 4.76 s  wall 4.76 s

 Total DFTman time = 4.76 CPUs 4.76 Wall
    3    -354.6495557834      6.51E-02
 CPU 0.00 s  wall 0.00 s
 CPU 4.67 s  wall 4.67 s

 Total DFTman time = 4.67 CPUs 4.67 Wall
    4    -516.6938686637      3.86E-02
 CPU 0.00 s  wall 0.00 s
 CPU 4.73 s  wall 4.74 s

 Total DFTman time = 4.73 CPUs 4.74 Wall
    5    -516.4864852488      3.48E-02
 CPU 0.00 s  wall 0.00 s
 CPU 4.69 s  wall 4.70 s

 Total DFTman time = 4.69 CPUs 4.70 Wall
    6    -546.9846289601      1.68E-02
 CPU 0.00 s  wall 0.00 s
 CPU 4.67 s  wall 4.67 s

 Total DFTman time = 4.67 CPUs 4.67 Wall
    7    -537.8897838866      2.77E-02
 CPU 0.00 s  wall 0.00 s
 CPU 4.59 s  wall 4.61 s

 Total DFTman time = 4.59 CPUs 4.61 Wall
    8    -555.9570854144      1.00E-02
 CPU 0.00 s  wall 0.00 s
 CPU 4.62 s  wall 4.62 s

 Total DFTman time = 4.62 CPUs 4.62 Wall
    9    -557.5172870037      6.41E-03
 CPU 0.00 s  wall 0.00 s
 CPU 4.50 s  wall 4.50 s

 Total DFTman time = 4.50 CPUs 4.50 Wall
   10    -558.2054234449      3.36E-03
 CPU 0.00 s  wall 0.00 s
 CPU 4.47 s  wall 4.48 s

 Total DFTman time = 4.47 CPUs 4.48 Wall
   11    -558.4182344695      8.05E-04
 CPU 0.00 s  wall 0.00 s
 CPU 4.33 s  wall 4.33 s

 Total DFTman time = 4.33 CPUs 4.33 Wall
   12    -558.4369479465      3.16E-04
 CPU 0.00 s  wall 0.00 s
 CPU 4.28 s  wall 4.28 s

 Total DFTman time = 4.28 CPUs 4.28 Wall
   13    -558.4393096035      1.29E-04
 CPU 0.00 s  wall 0.00 s
 CPU 4.14 s  wall 4.14 s

 Total DFTman time = 4.14 CPUs 4.14 Wall
   14    -558.4398265986      4.21E-05
 CPU 0.00 s  wall 0.00 s
 CPU 3.96 s  wall 3.96 s

 Total DFTman time = 3.96 CPUs 3.96 Wall
   15    -558.4398952393      1.50E-05
 CPU 0.00 s  wall 0.00 s
 CPU 3.67 s  wall 3.67 s

 Total DFTman time = 3.67 CPUs 3.67 Wall
   16    -558.4399086949      4.07E-06 Convergence criterion met
 ---------------------------------------
 <S^2> = 0.7578
 SCF time:  CPU 1069.63 s  wall 1071.35 s
 SCF   energy in the final basis set = -558.4399086949
 Total energy in the final basis set = -558.4399086949
 Analysis of SCF Wavefunction
 
 --------------------------------------------------------------
 
                    Orbital Energies (a.u.)
 --------------------------------------------------------------
 
 Alpha MOs
 -- Occupied --
-66.255 -19.303 -19.245 -10.421 -10.340 -10.327  -5.390  -3.734
 -3.734  -3.733  -1.219  -1.128  -0.880  -0.802  -0.673  -0.628
 -0.604  -0.586  -0.572  -0.520  -0.503  -0.456  -0.446  -0.442
 -0.430  -0.405  -0.379  -0.343
 -- Virtual --
  0.040   0.052   0.059   0.070   0.071   0.076   0.085   0.092
  0.093   0.099   0.110   0.111   0.133   0.141   0.149   0.151
  0.155   0.158   0.161   0.166   0.178   0.184   0.188   0.197
  0.198   0.206   0.229   0.240   0.242   0.253   0.258   0.265
  0.275   0.297   0.316   0.319   0.328   0.341   0.345   0.349
  0.353   0.356   0.375   0.380   0.384   0.391   0.397   0.400
  0.436   0.436   0.441   0.448   0.459   0.469   0.484   0.494
  0.505   0.519   0.527   0.552   0.558   0.575   0.578   0.589
  0.593   0.612   0.613   0.621   0.631   0.638   0.651   0.653
  0.666   0.669   0.688   0.711   0.719   0.724   0.742   0.751
  0.768   0.771   0.792   0.814   0.815   0.824   0.834   0.841
  0.850   0.856   0.873   0.877   0.896   0.920   0.921   0.947
  0.948   0.952   0.968   0.978   1.005   1.021   1.026   1.040
  1.062   1.071   1.080   1.099   1.109   1.124   1.138   1.153
  1.200   1.204   1.222   1.249   1.264   1.271   1.300   1.314
  1.355   1.375   1.379   1.382   1.401   1.444   1.457   1.477
  1.486   1.505   1.511   1.580   1.608   1.617   1.629   1.652
  1.669   1.681   1.715   1.729   1.769   1.797   1.827   1.839
  1.860   1.871   1.930   1.934   1.980   1.986   2.033   2.071
  2.079   2.097   2.103   2.129   2.136   2.169   2.186   2.195
  2.231   2.238   2.251   2.277   2.336   2.367   2.448   2.457
  2.475   2.477   2.488   2.554   2.635   2.644   2.649   2.696
  2.712   2.738   2.764   2.807   2.812   2.845   2.847   2.856
  2.929   2.954   2.991   3.004   3.014   3.048   3.072   3.082
  3.091   3.100   3.124   3.130   3.153   3.171   3.188   3.218
  3.230   3.260   3.271   3.284   3.323   3.344   3.357   3.361
  3.380   3.394   3.489   3.497   3.520   3.527   3.558   3.572
  3.590   3.641   3.658   3.674   3.703   3.712   3.728   3.737
  3.755   3.762   3.815   3.861   3.922   3.926   3.972   4.026
  4.031   4.044   4.078   4.092   4.164   4.198   4.254   4.260
  4.288   4.304   4.313   4.332   4.377   4.514   4.548   4.627
  4.691   4.706   4.725   4.748   4.755   4.767   4.904   4.919
  4.920   4.965   4.973   5.017   5.115   5.169   5.198   5.255
  5.308   5.356   5.362   5.392   5.518   5.521   5.647   5.652
  5.697   5.810   5.840   5.925   5.941   6.124   6.212   6.411
  6.500   6.565   6.704   7.053   7.105   7.219   7.307   7.490
  7.533   7.613   7.668   7.713   7.733   7.762   7.926   7.969
  8.021   8.261   8.324   8.402   8.453   8.485   8.502   8.505
  8.507   8.522   8.526   8.533   8.552   8.589   8.678   8.722
  8.733   8.787   8.947   8.973   9.010   9.598   9.616   9.846
  9.856  12.001  12.254  12.296  14.490  14.529  14.555  14.566
 14.649  14.770  14.885  15.053  15.209  15.356  25.178  25.490
 26.298  50.360  50.593 142.264
 
 Beta MOs
 -- Occupied --
-66.255 -19.302 -19.241 -10.422 -10.340 -10.317  -5.390  -3.735
 -3.734  -3.734  -1.217  -1.122  -0.863  -0.785  -0.670  -0.626
 -0.595  -0.580  -0.568  -0.517  -0.487  -0.454  -0.435  -0.433
 -0.428  -0.391  -0.373
 -- Virtual --
 -0.068   0.041   0.053   0.061   0.071   0.074   0.081   0.085
  0.093   0.098   0.100   0.110   0.123   0.136   0.143   0.150
  0.152   0.156   0.159   0.162   0.166   0.184   0.185   0.190
  0.198   0.207   0.209   0.230   0.243   0.244   0.259   0.262
  0.266   0.277   0.302   0.316   0.321   0.329   0.341   0.346
  0.351   0.354   0.359   0.376   0.381   0.385   0.393   0.398
  0.401   0.437   0.438   0.442   0.453   0.467   0.472   0.486
  0.496   0.509   0.521   0.529   0.553   0.560   0.578   0.584
  0.591   0.593   0.613   0.614   0.625   0.632   0.638   0.653
  0.657   0.666   0.670   0.689   0.711   0.720   0.725   0.746
  0.758   0.769   0.771   0.794   0.814   0.815   0.825   0.834
  0.842   0.849   0.860   0.874   0.877   0.896   0.921   0.922
  0.947   0.949   0.956   0.968   0.980   1.006   1.022   1.028
  1.042   1.064   1.071   1.081   1.099   1.111   1.126   1.141
  1.155   1.202   1.206   1.224   1.251   1.268   1.274   1.301
  1.315   1.357   1.376   1.380   1.383   1.403   1.448   1.460
  1.479   1.490   1.508   1.513   1.587   1.614   1.627   1.630
  1.653   1.671   1.681   1.717   1.751   1.770   1.810   1.830
  1.840   1.870   1.871   1.932   1.938   1.987   1.994   2.040
  2.075   2.081   2.101   2.105   2.132   2.140   2.172   2.187
  2.205   2.234   2.254   2.262   2.282   2.338   2.368   2.449
  2.459   2.476   2.481   2.490   2.556   2.636   2.644   2.651
  2.698   2.713   2.745   2.769   2.812   2.816   2.853   2.855
  2.875   2.938   2.960   3.007   3.017   3.032   3.050   3.076
  3.092   3.099   3.111   3.132   3.139   3.155   3.175   3.200
  3.221   3.233   3.266   3.275   3.300   3.326   3.352   3.359
  3.363   3.387   3.409   3.493   3.504   3.522   3.537   3.565
  3.578   3.593   3.643   3.662   3.677   3.709   3.720   3.736
  3.740   3.762   3.766   3.820   3.870   3.925   3.929   3.976
  4.030   4.033   4.045   4.081   4.093   4.169   4.201   4.260
  4.264   4.306   4.308   4.316   4.336   4.382   4.521   4.549
  4.630   4.696   4.725   4.729   4.750   4.755   4.769   4.905
  4.920   4.924   4.965   4.973   5.018   5.121   5.178   5.205
  5.259   5.315   5.363   5.369   5.395   5.520   5.526   5.652
  5.659   5.700   5.812   5.843   5.926   5.943   6.126   6.214
  6.418   6.504   6.566   6.706   7.055   7.106   7.251   7.362
  7.488   7.592   7.619   7.691   7.715   7.749   7.776   7.926
  7.970   8.036   8.262   8.327   8.402   8.455   8.487   8.505
  8.506   8.510   8.524   8.527   8.536   8.553   8.590   8.675
  8.722   8.733   8.788   8.952   8.974   9.013   9.599   9.615
  9.846   9.857  12.001  12.254  12.296  14.507  14.532  14.563
 14.578  14.653  14.787  14.890  15.057  15.214  15.358  25.180
 25.504  26.298  50.361  50.596 142.263
 --------------------------------------------------------------
 
          Ground-State Mulliken Net Atomic Charges

     Atom                 Charge (a.u.)    Spin (a.u.)
  --------------------------------------------------------
      1 C                     0.673697      -0.005645
      2 O                    -0.488389       0.025984
      3 O                    -0.661894       0.159033
      4 C                    -0.193775       0.810150
      5 Si                    0.435639      -0.040463
      6 H                    -0.077585       0.027055
      7 H                    -0.078606       0.025722
      8 H                    -0.072342       0.000165
      9 H                     0.031561      -0.001163
     10 C                     0.503152      -0.004873
     11 H                    -0.056950       0.000050
     12 H                    -0.004833       0.001486
     13 H                    -0.009675       0.002497
  --------------------------------------------------------
  Sum of atomic charges =     0.000000
  Sum of spin   charges =     1.000000

 -----------------------------------------------------------------
                    Cartesian Multipole Moments
 -----------------------------------------------------------------
    Charge (ESU x 10^10)
                 0.0000
    Dipole Moment (Debye)
         X       0.8904      Y       1.7125      Z      -0.0120
       Tot       1.9302
    Quadrupole Moments (Debye-Ang)
        XX     -37.9266     XY      -0.6301     YY     -47.3112
        XZ      -0.0754     YZ       0.1126     ZZ     -43.9872
    Octopole Moments (Debye-Ang^2)
       XXX      44.0410    XXY      -4.4906    XYY       3.7010
       YYY       6.1038    XXZ      -0.1943    XYZ      -0.1462
       YYZ      -0.1360    XZZ       8.4471    YZZ      -0.8756
       ZZZ       0.3212
    Hexadecapole Moments (Debye-Ang^3)
      XXXX   -1029.3094   XXXY      16.7763   XXYY    -214.9093
      XYYY       1.6452   YYYY    -175.9604   XXXZ      -0.9256
      XXYZ      -0.6340   XYYZ      -0.7485   YYYZ       0.4784
      XXZZ    -196.5753   XYZZ      -3.1869   YYZZ     -42.1897
      XZZZ       0.4787   YZZZ      -0.1075   ZZZZ     -74.7099
 -----------------------------------------------------------------
Directory /home/ben/scratch/qchem/plt-spin/plotsalready exists
Directory /home/ben/scratch/qchem/plt-spin/plotsalready exists
Directory /home/ben/scratch/qchem/plt-spin/plotsalready exists
Directory /home/ben/scratch/qchem/plt-spin/plotsalready exists
Archival summary:
1\1\vonNeumann\SP\ProcedureUnspecified\BasisUnspecified\i1237(2)\ben\WedApr2916:16:012015WedApr2916:16:012015\0\\#,ProcedureUnspecified,BasisUnspecified,\\0,2\Si\H,1,1.48372\H,1,1.48373,2,109.527\H,1,1.48532,2,109.249,3,-119.546,0\C,1,1.86743,2,110.436,3,121.719,0\H,5,1.08641,1,123.463,2,118.414,0\C,5,1.45592,1,119.074,2,-61.2462,0\O,7,1.22014,5,123.624,1,1.57454,0\O,7,1.34635,5,113.174,1,-178.157,0\C,9,1.42613,7,115.112,5,179.593,0\H,10,1.08901,9,105.696,7,-174.087,0\H,10,1.09191,9,110.584,7,-54.0494,0\H,10,1.09308,9,110.629,7,66.6306,0\\\@

 Total job time:  2355.33s(wall), 2351.28s(cpu) 
 Wed Apr 29 16:16:01 2015

        *************************************************************
        *                                                           *
        *  Thank you very much for using Q-Chem.  Have a nice day.  *
        *                                                           *
        *************************************************************


