                  Welcome to Q-Chem
     A Quantum Leap Into The Future Of Chemistry


 Q-Chem 4.3 (beta), Q-Chem, Inc., Pleasanton, CA (2015)

 Y. Shao,  Z. Gan,  E. Epifanovsky,  A. T. B. Gilbert,  M. Wormit,  
 J. Kussmann,  A. W. Lange,  A. Behn,  J. Deng,  X. Feng,  D. Ghosh,  
 M. Goldey,  P. R. Horn,  L. D. Jacobson,  I. Kaliman,  R. Z. Khaliullin,  
 T. Kus,  A. Landau,  J. Liu,  E. I. Proynov,  Y. M. Rhee,  R. M. Richard,  
 M. A. Rohrdanz,  R. P. Steele,  E. J. Sundstrom,  H. L. Woodcock III,  
 P. M. Zimmerman,  D. Zuev,  B. Albrecht,  E. Alguire,  B. Austin,  
 S. A. Baeppler,  G. J. O. Beran,  Y. A. Bernard,  E. Berquist,  
 K. Brandhorst,  K. B. Bravaya,  S. T. Brown,  D. Casanova,  C.-M. Chang,  
 Y. Chen,  S. H. Chien,  K. D. Closser,  D. L. Crittenden,  M. Diedenhofen,  
 R. A. DiStasio Jr.,  H. Do,  A. D. Dutoi,  R. G. Edgar,  P.-T. Fang,  
 S. Fatehi,  Q. Feng,  L. Fusti-Molnar,  A. Ghysels,  
 A. Golubeva-Zadorozhnaya,  J. Gomes,  A. Gunina,  M. W. D. Hanson-Heine,  
 P. H. P. Harbach,  A. W. Hauser,  E. G. Hohenstein,  Z. C. Holden,  K. Hui,  
 T.-C. Jagau,  H. Ji,  B. Kaduk,  K. Khistyaev,  Jaehoon Kim,  Jihan Kim,  
 R. A. King,  P. Klunzinger,  D. Kosenkov,  T. Kowalczyk,  C. M. Krauter,  
 K. U. Lao,  A. Laurent,  K. V. Lawler,  S. Lehtola,  S. V. Levchenko,  
 C. Y. Lin,  Y.-S. Lin,  F. Liu,  E. Livshits,  R. C. Lochan,  A. Luenser,  
 P. Manohar,  S. F. Manzer,  S.-P. Mao,  N. Mardirossian,  A. V. Marenich,  
 L. A. Martinez-Martinez,  S. A. Maurer,  N. J. Mayhall,  K. Nanda,  
 C. M. Oana,  R. Olivares-Amaya,  D. P. O'Neill,  J. A. Parkhill,  
 T. M. Perrine,  R. Peverati,  P. A. Pieniazek,  F. Plasser,  A. Prociuk,  
 D. R. Rehn,  E. Rosta,  N. J. Russ,  N. Sergueev,  S. M. Sharada,  
 S. Sharma,  D. W. Small,  A. Sodt,  T. Stauch,  T. Stein,  D. Stuck,  
 Y.-C. Su,  A. J. W. Thom,  T. Tsuchimochi,  L. Vogt,  O. Vydrov,  T. Wang,  
 M. A. Watson,  J. Wenzel,  A. White,  C. F. Williams,  V. Vanovschi,  
 S. Yeganeh,  S. R. Yost,  Z.-Q. You,  I. Y. Zhang,  X. Zhang,  Y. Zhao,  
 B. R. Brooks,  G. K. L. Chan,  D. M. Chipman,  C. J. Cramer,  
 W. A. Goddard III,  M. S. Gordon,  W. J. Hehre,  A. Klamt,  
 H. F. Schaefer III,  M. W. Schmidt,  C. D. Sherrill,  D. G. Truhlar,  
 A. Warshel,  X. Xu,  A. Aspuru-Guzik,  R. Baer,  A. T. Bell,  N. A. Besley,  
 J.-D. Chai,  A. Dreuw,  B. D. Dunietz,  T. R. Furlani,  S. R. Gwaltney,  
 C.-P. Hsu,  Y. Jung,  J. Kong,  D. S. Lambrecht,  W. Liang,  C. Ochsenfeld,  
 V. A. Rassolov,  L. V. Slipchenko,  J. E. Subotnik,  T. Van Voorhis,  
 J. M. Herbert,  A. I. Krylov,  P. M. W. Gill,  M. Head-Gordon

 Contributors to earlier versions of Q-Chem not listed above: 
 R. D. Adamson,  J. Baker,  E. F. C. Byrd,  A. K. Chakraborty,  C.-L. Cheng,  
 H. Dachsel,  R. J. Doerksen,  G. Hawkins,  A. Heyden,  S. Hirata,  
 G. Kedziora,  F. J. Keil,  C. Kelley,  P. P. Korambath,  W. Kurlancheek,  
 A. M. Lee,  M. S. Lee,  D. Liotard,  I. Lotan,  P. E. Maslen,  N. Nair,  
 D. Neuhauser,  R. Olson,  B. Peters,  J. Ritchie,  N. E. Schultz,  
 N. Shenvi,  A. C. Simmonett,  K. S. Thanthiriwatte,  Q. Wu,  W. Zhang

 Please cite Q-Chem as follows:
 Y. Shao et al., Mol. Phys. 113, 184-215 (2014)
 DOI: 10.1080/00268976.2014.952696

 Q-Chem 4.3.0 for Mac (Intel) OS X

 Parts of Q-Chem use Armadillo 4.550.3 (Singapore Sling Deluxe).
 http://arma.sourceforge.net/

 Q-Chem begins on Tue Apr 28 11:36:40 2015  

cl-130-49-12-135.wireless.pitt.edu
Host: 0

     Scratch files written to /Users/albrecht/scratch/qchem/plt-spin//
 Apr1115 |Users|albrecht|opt|build|qchem|4.3|trunk_RNUM -1
Processing $rem in /Users/albrecht/.qchemrc.
    geom_opt_tol_gradient       30      ! Override default 300
    geom_opt_tol_displacement   120     ! Override default 1200
    geom_opt_tol_energy         10      ! Override default 100
    geom_opt_max_cycles         500     ! Override default 50
    symmetry              false
    sym_ignore            true

Checking the input file for inconsistencies...	...done.

--------------------------------------------------------------
User input:
--------------------------------------------------------------
$molecule
    0 2
    C      0.5257302888    0.1305985181    0.0100075403
    O      1.6234821038    0.8582166421    0.2896131034
    O      0.5715967501   -1.0214087362   -0.3893783015
    C     -0.7155727511    0.8598973750    0.2268124796
    Si    -2.3393648031    0.0227472458   -0.1601739944
    H     -2.5124025840   -1.1865087651    0.6819568820
    H     -2.3944211453   -0.3586757098   -1.5929845255
    H     -3.4340276049    0.9833633295    0.1315672317
    H     -0.6408677524    1.8719020689    0.6148270982
    C      2.8640787035    0.1859487872    0.0826815751
    H      3.6365413555    0.9355310263    0.2480977639
    H      2.9201151248   -0.2125681654   -0.9323655631
    H      2.9789329064   -0.6374860773    0.7923212322
$end

$rem
    jobtype                     sp
    exchange                    b3lyp
    !exchange                   omegaB97X-D
    basis                       STO-3G
    unrestricted                true
    scf_algorithm               diis
    make_cube_files             true
    plot_spin_density           true
$end

$plots
    Plot stuff
    50 -10.0 10.0
    50 -10.0 10.0
    50 -10.0 10.0
    0 2 0 0
    0 1
$end


--------------------------------------------------------------
 ----------------------------------------------------------------
             Standard Nuclear Orientation (Angstroms)
    I     Atom           X                Y                Z
 ----------------------------------------------------------------
    1      C       0.5257302888     0.1305985181     0.0100075403
    2      O       1.6234821038     0.8582166421     0.2896131034
    3      O       0.5715967501    -1.0214087362    -0.3893783015
    4      C      -0.7155727511     0.8598973750     0.2268124796
    5      Si     -2.3393648031     0.0227472458    -0.1601739944
    6      H      -2.5124025840    -1.1865087651     0.6819568820
    7      H      -2.3944211453    -0.3586757098    -1.5929845255
    8      H      -3.4340276049     0.9833633295     0.1315672317
    9      H      -0.6408677524     1.8719020689     0.6148270982
   10      C       2.8640787035     0.1859487872     0.0826815751
   11      H       3.6365413555     0.9355310263     0.2480977639
   12      H       2.9201151248    -0.2125681654    -0.9323655631
   13      H       2.9789329064    -0.6374860773     0.7923212322
 ----------------------------------------------------------------
 Nuclear Repulsion Energy =   283.7088712260 hartrees
 There are       28 alpha and       27 beta electrons
 Requested basis set is STO-3G
 There are 20 shells and 41 basis functions

Total QAlloc Memory Limit   2000 MB
Mega-Array Size        61 MB
MEM_STATIC part        62 MB

                       Distance Matrix (Angstroms)
             C (  1)   O (  2)   O (  3)   C (  4)   Si(  5)   H (  6)
   O (  2)  1.346353
   O (  3)  1.220137  2.258425
   C (  4)  1.455924  2.339898  2.361315
   Si(  5)  2.872171  4.074859  3.101047  1.867426
   H (  6)  3.378837  4.630376  3.268955  2.761074  1.483721
   H (  7)  3.366936  4.600929  3.268814  2.759549  1.483732  2.423754
   H (  8)  4.052366  5.061526  4.509492  2.722923  1.485322  2.420881
   H (  9)  2.181489  2.502120  3.293895  1.086411  2.627716  3.586227
   C ( 10)  2.340132  1.426129  2.633634  3.645392  5.211664  5.581158
   H ( 11)  3.222072  2.014971  3.691866  4.352823  6.058986  6.519264
   H ( 12)  2.595941  2.078718  2.542557  3.963849  5.321070  5.750378
   H ( 13)  2.687038  2.080166  2.709073  4.026330  5.443110  5.519816
             H (  7)   H (  8)   H (  9)   C ( 10)   H ( 11)   H ( 12)
   H (  8)  2.419903
   H (  9)  3.595116  2.970654
   C ( 10)  5.545836  6.348575  3.925591
   H ( 11)  6.437163  7.071691  4.394031  1.089006
   H ( 12)  5.357430  6.552659  4.406747  1.091914  1.795798
   H ( 13)  5.885606  6.647542  4.408116  1.093080  1.789696  1.777234


 A cutoff of  1.0D-08 yielded    184 shell pairs
 There are       823 function pairs

 -------------------------------------------------------
 OpenMP Integral Computing Module                       
 Release: version 1.0, May 2013, Q-Chem Inc. Pittsburgh 
 -------------------------------------------------------
 Integral Job Info:
 Integral job number is                      11
 Integral operator is                         1
 short-range coefficients               -999999
 long-range coefficients                -999999
 Omega coefficients                           0
 if combine SR and LR in K              -999999
 Integral screening is                        0
 Integral computing path is                   2
 max size of driver memory is            800000
 size of driver memory is                 45569
 size of scratch memory is               945100
 max col of scratch BK array                289
 max len of scratch array in speh3           22
 max len of scratch index in speh4            8
 max int batch size is                      520
 min int batch size is                       52
 fixed nKL is                                52
 max L of basis functions is                  1
 order of int derivative is                   0
 number of shells is                         20
 number of basis is                          41
 number of cartesian basis is                41
 number of contracted shell pairs           184
 number of primitive shell pairs           1112
 maxK2 (contraction) of shell pair            9
 max number of K2 of shell pair               1
 max number of CS2 of shell pair             20
 max number of PS2 of shell pair            153
 mem total for path MDJ                   14214
 -------------------------------------------------------
 Smallest overlap matrix eigenvalue = 2.30E-01

  Scale SEOQF with 1.000000e-01/1.000000e-01/1.000000e+00

 Standard Electronic Orientation quadrupole field applied
 Nucleus-field energy     =     0.0000000013 hartrees
 Guess from superposition of atomic densities
 Warning:  Energy on first SCF cycle will be non-variational
 An unrestricted hybrid HF-DFT SCF calculation will be
 performed using Pulay DIIS extrapolation
 Exchange:     0.2000 Hartree-Fock + 0.0800 Slater + 0.7200 Becke88
 Correlation:  0.8100 LYP + 0.1900 VWN1RPA
 Using SG-1 standard quadrature grid
 SCF converges when DIIS error is below 1.0E-05
 CPU 0.00 s  wall 0.00 s
 CPU 1.07 s  wall 1.08 s

 Total DFTman time = 1.07 CPUs 1.08 Wall
 ---------------------------------------
  Cycle       Energy         DIIS Error
 ---------------------------------------
    1    -550.9737912886      1.52E-01
 CPU 0.00 s  wall 0.00 s
 CPU 0.60 s  wall 0.61 s

 Total DFTman time = 0.60 CPUs 0.61 Wall
    2    -551.3980731112      2.10E-02
 CPU 0.00 s  wall 0.00 s
 CPU 0.57 s  wall 0.57 s

 Total DFTman time = 0.57 CPUs 0.57 Wall
    3    -550.4467217933      6.00E-02
 CPU 0.00 s  wall 0.00 s
 CPU 0.56 s  wall 0.56 s

 Total DFTman time = 0.56 CPUs 0.56 Wall
    4    -551.4864916309      1.21E-02
 CPU 0.00 s  wall 0.00 s
 CPU 0.54 s  wall 0.54 s

 Total DFTman time = 0.54 CPUs 0.54 Wall
    5    -551.5341503298      1.60E-03
 CPU 0.00 s  wall 0.00 s
 CPU 0.52 s  wall 0.52 s

 Total DFTman time = 0.52 CPUs 0.52 Wall
    6    -551.5355678590      1.11E-03
 CPU 0.00 s  wall 0.00 s
 CPU 0.48 s  wall 0.49 s

 Total DFTman time = 0.48 CPUs 0.49 Wall
    7    -551.5360590463      3.90E-04
 CPU 0.00 s  wall 0.00 s
 CPU 0.45 s  wall 0.45 s

 Total DFTman time = 0.45 CPUs 0.45 Wall
    8    -551.5361614961      2.20E-04
 CPU 0.00 s  wall 0.00 s
 CPU 0.44 s  wall 0.44 s

 Total DFTman time = 0.44 CPUs 0.44 Wall
    9    -551.5362198696      1.13E-04
 CPU 0.00 s  wall 0.00 s
 CPU 0.41 s  wall 0.42 s

 Total DFTman time = 0.41 CPUs 0.42 Wall
   10    -551.5362379609      5.79E-05
 CPU 0.00 s  wall 0.00 s
 CPU 0.40 s  wall 0.40 s

 Total DFTman time = 0.40 CPUs 0.40 Wall
   11    -551.5362429765      2.40E-05
 CPU 0.00 s  wall 0.00 s
 CPU 0.37 s  wall 0.37 s

 Total DFTman time = 0.37 CPUs 0.37 Wall
   12    -551.5362441929      7.86E-06 Convergence criterion met
 ---------------------------------------
 <S^2> = 0.7661
 SCF time:  CPU 6.84 s  wall 6.92 s
 SCF   energy in the final basis set = -551.5362441929
 Total energy in the final basis set = -551.5362441929
 Analysis of SCF Wavefunction

 --------------------------------------------------------------

                    Orbital Energies (a.u.)
 --------------------------------------------------------------

 Alpha MOs
 -- Occupied --
-65.380 -18.932 -18.853 -10.102 -10.070  -9.970  -5.101  -3.402
 -3.402  -3.402  -1.042  -0.951  -0.710  -0.649  -0.514  -0.472
 -0.441  -0.428  -0.397  -0.347  -0.341  -0.301  -0.293  -0.290
 -0.241  -0.183  -0.160  -0.148
 -- Virtual --
  0.155   0.268   0.299   0.316   0.344   0.355   0.414   0.439
  0.443   0.460   0.480   0.564   0.717

 Beta MOs
 -- Occupied --
-65.380 -18.932 -18.849 -10.104 -10.070  -9.957  -5.102  -3.403
 -3.402  -3.402  -1.039  -0.941  -0.697  -0.629  -0.512  -0.470
 -0.433  -0.427  -0.394  -0.335  -0.330  -0.296  -0.290  -0.280
 -0.238  -0.166  -0.140
 -- Virtual --
  0.002   0.186   0.278   0.303   0.318   0.349   0.366   0.414
  0.439   0.456   0.465   0.481   0.576   0.722
 --------------------------------------------------------------

          Ground-State Mulliken Net Atomic Charges

     Atom                 Charge (a.u.)    Spin (a.u.)
  --------------------------------------------------------
      1 C                     0.208282      -0.136185
      2 O                    -0.196808      -0.001895
      3 O                    -0.242332       0.258593
      4 C                    -0.231157       0.931057
      5 Si                    0.593142      -0.061657
      6 H                    -0.117698       0.026040
      7 H                    -0.117998       0.025019
      8 H                    -0.127887       0.000017
      9 H                     0.077479      -0.039594
     10 C                    -0.125913      -0.002022
     11 H                     0.096223       0.000143
     12 H                     0.093664       0.000106
     13 H                     0.091003       0.000378
  --------------------------------------------------------
  Sum of atomic charges =     0.000000
  Sum of spin   charges =     1.000000

 -----------------------------------------------------------------
                    Cartesian Multipole Moments
 -----------------------------------------------------------------
    Charge (ESU x 10^10)
                 0.0000
    Dipole Moment (Debye)
         X       0.2339      Y       0.7828      Z       0.2656
       Tot       0.8591
    Quadrupole Moments (Debye-Ang)
        XX     -34.9472     XY      -0.2899     YY     -42.1217
        XZ      -0.0196     YZ      -0.9715     ZZ     -39.7119
    Octopole Moments (Debye-Ang^2)
       XXX      25.4018    XXY      -7.5752    XYY       1.7092
       YYY     -15.5838    XXZ       0.2032    XYZ      -1.3341
       YYZ       1.8687    XZZ       4.5405    YZZ      -5.9868
       ZZZ       2.6056
    Hexadecapole Moments (Debye-Ang^3)
      XXXX    -941.7727   XXXY       6.6494   XXYY    -190.5292
      XYYY     -10.9399   YYYY    -138.3987   XXXZ     -15.6041
      XXYZ      -5.1489   XYYZ      -5.4858   YYYZ     -13.6654
      XXZZ    -175.7262   XYZZ      -6.0255   YYZZ     -34.1538
      XZZZ     -24.7848   YZZZ     -14.1493   ZZZZ     -67.7814
 -----------------------------------------------------------------

 Q-Chem fatal error occurred in module /Users/albrecht/opt/build/qchem/4.3/trunk_release/libmdc/newfileman.C, line 136:

 Error positioning pointer in FILE 73/0 (-1755327064)

