                  Welcome to Q-Chem
     A Quantum Leap Into The Future Of Chemistry


 Q-Chem 4.3 (beta), Q-Chem, Inc., Pleasanton, CA (2015)

 Y. Shao,  Z. Gan,  E. Epifanovsky,  A. T. B. Gilbert,  M. Wormit,  
 J. Kussmann,  A. W. Lange,  A. Behn,  J. Deng,  X. Feng,  D. Ghosh,  
 M. Goldey,  P. R. Horn,  L. D. Jacobson,  I. Kaliman,  R. Z. Khaliullin,  
 T. Kus,  A. Landau,  J. Liu,  E. I. Proynov,  Y. M. Rhee,  R. M. Richard,  
 M. A. Rohrdanz,  R. P. Steele,  E. J. Sundstrom,  H. L. Woodcock III,  
 P. M. Zimmerman,  D. Zuev,  B. Albrecht,  E. Alguire,  B. Austin,  
 S. A. Baeppler,  G. J. O. Beran,  Y. A. Bernard,  E. Berquist,  
 K. Brandhorst,  K. B. Bravaya,  S. T. Brown,  D. Casanova,  C.-M. Chang,  
 Y. Chen,  S. H. Chien,  K. D. Closser,  D. L. Crittenden,  M. Diedenhofen,  
 R. A. DiStasio Jr.,  H. Do,  A. D. Dutoi,  R. G. Edgar,  P.-T. Fang,  
 S. Fatehi,  Q. Feng,  L. Fusti-Molnar,  A. Ghysels,  
 A. Golubeva-Zadorozhnaya,  J. Gomes,  A. Gunina,  M. W. D. Hanson-Heine,  
 P. H. P. Harbach,  A. W. Hauser,  E. G. Hohenstein,  Z. C. Holden,  K. Hui,  
 T.-C. Jagau,  H. Ji,  B. Kaduk,  K. Khistyaev,  Jaehoon Kim,  Jihan Kim,  
 R. A. King,  P. Klunzinger,  D. Kosenkov,  T. Kowalczyk,  C. M. Krauter,  
 K. U. Lao,  A. Laurent,  K. V. Lawler,  S. Lehtola,  S. V. Levchenko,  
 C. Y. Lin,  Y.-S. Lin,  F. Liu,  E. Livshits,  R. C. Lochan,  A. Luenser,  
 P. Manohar,  S. F. Manzer,  S.-P. Mao,  N. Mardirossian,  A. V. Marenich,  
 L. A. Martinez-Martinez,  S. A. Maurer,  N. J. Mayhall,  K. Nanda,  
 C. M. Oana,  R. Olivares-Amaya,  D. P. O'Neill,  J. A. Parkhill,  
 T. M. Perrine,  R. Peverati,  P. A. Pieniazek,  F. Plasser,  A. Prociuk,  
 D. R. Rehn,  E. Rosta,  N. J. Russ,  N. Sergueev,  S. M. Sharada,  
 S. Sharma,  D. W. Small,  A. Sodt,  T. Stauch,  T. Stein,  D. Stuck,  
 Y.-C. Su,  A. J. W. Thom,  T. Tsuchimochi,  L. Vogt,  O. Vydrov,  T. Wang,  
 M. A. Watson,  J. Wenzel,  A. White,  C. F. Williams,  V. Vanovschi,  
 S. Yeganeh,  S. R. Yost,  Z.-Q. You,  I. Y. Zhang,  X. Zhang,  Y. Zhao,  
 B. R. Brooks,  G. K. L. Chan,  D. M. Chipman,  C. J. Cramer,  
 W. A. Goddard III,  M. S. Gordon,  W. J. Hehre,  A. Klamt,  
 H. F. Schaefer III,  M. W. Schmidt,  C. D. Sherrill,  D. G. Truhlar,  
 A. Warshel,  X. Xu,  A. Aspuru-Guzik,  R. Baer,  A. T. Bell,  N. A. Besley,  
 J.-D. Chai,  A. Dreuw,  B. D. Dunietz,  T. R. Furlani,  S. R. Gwaltney,  
 C.-P. Hsu,  Y. Jung,  J. Kong,  D. S. Lambrecht,  W. Liang,  C. Ochsenfeld,  
 V. A. Rassolov,  L. V. Slipchenko,  J. E. Subotnik,  T. Van Voorhis,  
 J. M. Herbert,  A. I. Krylov,  P. M. W. Gill,  M. Head-Gordon

 Contributors to earlier versions of Q-Chem not listed above: 
 R. D. Adamson,  J. Baker,  E. F. C. Byrd,  A. K. Chakraborty,  C.-L. Cheng,  
 H. Dachsel,  R. J. Doerksen,  G. Hawkins,  A. Heyden,  S. Hirata,  
 G. Kedziora,  F. J. Keil,  C. Kelley,  P. P. Korambath,  W. Kurlancheek,  
 A. M. Lee,  M. S. Lee,  D. Liotard,  I. Lotan,  P. E. Maslen,  N. Nair,  
 D. Neuhauser,  R. Olson,  B. Peters,  J. Ritchie,  N. E. Schultz,  
 N. Shenvi,  A. C. Simmonett,  K. S. Thanthiriwatte,  Q. Wu,  W. Zhang

 Please cite Q-Chem as follows:
 Y. Shao et al., Mol. Phys. 113, 184-215 (2014)
 DOI: 10.1080/00268976.2014.952696

 Q-Chem 4.3.0 for Mac (Intel) OS X

 Parts of Q-Chem use Armadillo 4.550.3 (Singapore Sling Deluxe).
 http://arma.sourceforge.net/

 Q-Chem begins on Wed Apr 22 16:29:07 2015  

mc-wireless-pittnet-150-212-11-131.wireless.pitt.edu
Host: 0

     Scratch files written to /Users/albrecht/scratch/qchem/plt//
 Apr1115 |Users|albrecht|opt|build|qchem|4.3|trunk_RNUM -1
Processing $rem in /Users/albrecht/.qchemrc.
    geom_opt_tol_gradient       30      ! Override default 300
    geom_opt_tol_displacement   120     ! Override default 1200
    geom_opt_tol_energy         10      ! Override default 100
    geom_opt_max_cycles         500     ! Override default 50
    symmetry              false
    sym_ignore            true

Checking the input file for inconsistencies...	...done.

--------------------------------------------------------------
User input:
--------------------------------------------------------------
$molecule
    0 2
    C      0.5257302888    0.1305985181    0.0100075403
    O      1.6234821038    0.8582166421    0.2896131034
    O      0.5715967501   -1.0214087362   -0.3893783015
    C     -0.7155727511    0.8598973750    0.2268124796
    Si    -2.3393648031    0.0227472458   -0.1601739944
    H     -2.5124025840   -1.1865087651    0.6819568820
    H     -2.3944211453   -0.3586757098   -1.5929845255
    H     -3.4340276049    0.9833633295    0.1315672317
    H     -0.6408677524    1.8719020689    0.6148270982
    C      2.8640787035    0.1859487872    0.0826815751
    H      3.6365413555    0.9355310263    0.2480977639
    H      2.9201151248   -0.2125681654   -0.9323655631
    H      2.9789329064   -0.6374860773    0.7923212322
$end

$rem
    jobtype                     sp
    !exchange                   omegaB97X-D
    exchange                    hf
    !basis                       6-31G**
    basis                       STO-3G
    unrestricted                true
    scf_algorithm               diis
    make_cube_files             true
    plot_spin_density           true
$end

$plots
    Plot stuff
    50 -10.0 10.0
    50 -10.0 10.0
    50 -10.0 10.0
    0 2 0 0
    0 1
$end


--------------------------------------------------------------
 ----------------------------------------------------------------
             Standard Nuclear Orientation (Angstroms)
    I     Atom           X                Y                Z
 ----------------------------------------------------------------
    1      C       0.5257302888     0.1305985181     0.0100075403
    2      O       1.6234821038     0.8582166421     0.2896131034
    3      O       0.5715967501    -1.0214087362    -0.3893783015
    4      C      -0.7155727511     0.8598973750     0.2268124796
    5      Si     -2.3393648031     0.0227472458    -0.1601739944
    6      H      -2.5124025840    -1.1865087651     0.6819568820
    7      H      -2.3944211453    -0.3586757098    -1.5929845255
    8      H      -3.4340276049     0.9833633295     0.1315672317
    9      H      -0.6408677524     1.8719020689     0.6148270982
   10      C       2.8640787035     0.1859487872     0.0826815751
   11      H       3.6365413555     0.9355310263     0.2480977639
   12      H       2.9201151248    -0.2125681654    -0.9323655631
   13      H       2.9789329064    -0.6374860773     0.7923212322
 ----------------------------------------------------------------
 Nuclear Repulsion Energy =   283.7088712260 hartrees
 There are       28 alpha and       27 beta electrons
 Requested basis set is STO-3G
 There are 20 shells and 41 basis functions

Total QAlloc Memory Limit   2000 MB
Mega-Array Size        61 MB
MEM_STATIC part        62 MB

                       Distance Matrix (Angstroms)
             C (  1)   O (  2)   O (  3)   C (  4)   Si(  5)   H (  6)
   O (  2)  1.346353
   O (  3)  1.220137  2.258425
   C (  4)  1.455924  2.339898  2.361315
   Si(  5)  2.872171  4.074859  3.101047  1.867426
   H (  6)  3.378837  4.630376  3.268955  2.761074  1.483721
   H (  7)  3.366936  4.600929  3.268814  2.759549  1.483732  2.423754
   H (  8)  4.052366  5.061526  4.509492  2.722923  1.485322  2.420881
   H (  9)  2.181489  2.502120  3.293895  1.086411  2.627716  3.586227
   C ( 10)  2.340132  1.426129  2.633634  3.645392  5.211664  5.581158
   H ( 11)  3.222072  2.014971  3.691866  4.352823  6.058986  6.519264
   H ( 12)  2.595941  2.078718  2.542557  3.963849  5.321070  5.750378
   H ( 13)  2.687038  2.080166  2.709073  4.026330  5.443110  5.519816
             H (  7)   H (  8)   H (  9)   C ( 10)   H ( 11)   H ( 12)
   H (  8)  2.419903
   H (  9)  3.595116  2.970654
   C ( 10)  5.545836  6.348575  3.925591
   H ( 11)  6.437163  7.071691  4.394031  1.089006
   H ( 12)  5.357430  6.552659  4.406747  1.091914  1.795798
   H ( 13)  5.885606  6.647542  4.408116  1.093080  1.789696  1.777234


 A cutoff of  1.0D-08 yielded    184 shell pairs
 There are       823 function pairs

 -------------------------------------------------------
 OpenMP Integral Computing Module                       
 Release: version 1.0, May 2013, Q-Chem Inc. Pittsburgh 
 -------------------------------------------------------
 Integral Job Info:
 Integral job number is                      11
 Integral operator is                         1
 short-range coefficients               -999999
 long-range coefficients                -999999
 Omega coefficients                           0
 if combine SR and LR in K              -999999
 Integral screening is                        0
 Integral computing path is                   2
 max size of driver memory is            800000
 size of driver memory is                 45569
 size of scratch memory is               945100
 max col of scratch BK array                289
 max len of scratch array in speh3           22
 max len of scratch index in speh4            8
 max int batch size is                      520
 min int batch size is                       52
 fixed nKL is                                52
 max L of basis functions is                  1
 order of int derivative is                   0
 number of shells is                         20
 number of basis is                          41
 number of cartesian basis is                41
 number of contracted shell pairs           184
 number of primitive shell pairs           1112
 maxK2 (contraction) of shell pair            9
 max number of K2 of shell pair               1
 max number of CS2 of shell pair             20
 max number of PS2 of shell pair            153
 mem total for path MDJ                   14214
 -------------------------------------------------------
 Smallest overlap matrix eigenvalue = 2.30E-01

  Scale SEOQF with 1.000000e-01/1.000000e-01/1.000000e+00

 Standard Electronic Orientation quadrupole field applied
 Nucleus-field energy     =     0.0000000013 hartrees
 Guess from superposition of atomic densities
 Warning:  Energy on first SCF cycle will be non-variational
 An unrestricted Hartree-Fock SCF calculation will be
 performed using Pulay DIIS extrapolation
 SCF converges when DIIS error is below 1.0E-05
 ---------------------------------------
  Cycle       Energy         DIIS Error
 ---------------------------------------
    1    -548.5467077151      1.60E-01
    2    -549.3347735613      2.33E-02
    3    -549.4774363765      1.51E-02
    4    -549.5304953173      2.18E-03
    5    -549.5364213700      1.23E-03
    6    -549.5395914442      5.78E-04
    7    -549.5426054795      4.30E-04
    8    -549.5448112161      3.78E-04
    9    -549.5496750612      1.58E-04
   10    -549.5497112015      4.17E-05
   11    -549.5497576048      2.21E-05
   12    -549.5497578844      9.52E-06 Convergence criterion met
 ---------------------------------------
 <S^2> = 1.0113
 SCF time:  CPU 0.40 s  wall 0.41 s
 SCF   energy in the final basis set = -549.5497578844
 Total energy in the final basis set = -549.5497578844
 Analysis of SCF Wavefunction

 --------------------------------------------------------------

                    Orbital Energies (a.u.)
 --------------------------------------------------------------

 Alpha MOs
 -- Occupied --
-67.990 -20.292 -20.288 -11.137 -11.101 -10.997  -5.969  -3.995
 -3.995  -3.994  -1.399  -1.300  -0.966  -0.887  -0.705  -0.660
 -0.631  -0.608  -0.576  -0.537  -0.535  -0.444  -0.441  -0.424
 -0.410  -0.382  -0.371  -0.326
 -- Virtual --
  0.358   0.480   0.520   0.528   0.568   0.597   0.672   0.693
  0.695   0.716   0.768   0.846   1.028

 Beta MOs
 -- Occupied --
-67.991 -20.291 -20.273 -11.153 -11.101 -10.968  -5.971  -3.998
 -3.997  -3.996  -1.378  -1.261  -0.935  -0.845  -0.707  -0.655
 -0.614  -0.613  -0.562  -0.527  -0.491  -0.427  -0.426  -0.414
 -0.397  -0.342  -0.310
 -- Virtual --
  0.250   0.424   0.506   0.517   0.532   0.596   0.600   0.668
  0.693   0.711   0.724   0.758   0.860   1.036
 --------------------------------------------------------------

          Ground-State Mulliken Net Atomic Charges

     Atom                 Charge (a.u.)    Spin (a.u.)
  --------------------------------------------------------
      1 C                     0.261915      -0.618440
      2 O                    -0.265365      -0.046036
      3 O                    -0.225606       0.679422
      4 C                    -0.235217       1.142700
      5 Si                    0.698502      -0.128329
      6 H                    -0.149553       0.025957
      7 H                    -0.149844       0.025061
      8 H                    -0.157449       0.003317
      9 H                     0.063339      -0.083690
     10 C                    -0.058773       0.003182
     11 H                     0.078216       0.000656
     12 H                     0.071249      -0.001788
     13 H                     0.068587      -0.002012
  --------------------------------------------------------
  Sum of atomic charges =     0.000000
  Sum of spin   charges =     1.000000

 -----------------------------------------------------------------
                    Cartesian Multipole Moments
 -----------------------------------------------------------------
    Charge (ESU x 10^10)
                 0.0000
    Dipole Moment (Debye)
         X       0.0540      Y       0.4110      Z       0.1297
       Tot       0.4343
    Quadrupole Moments (Debye-Ang)
        XX     -36.4768     XY      -0.8128     YY     -42.8989
        XZ      -0.2374     YZ      -1.1330     ZZ     -40.0831
    Octopole Moments (Debye-Ang^2)
       XXX      24.9966    XXY      -8.3929    XYY       1.5956
       YYY     -16.1296    XXZ      -0.0300    XYZ      -1.4693
       YYZ       1.6017    XZZ       4.7539    YZZ      -5.9141
       ZZZ       2.8740
    Hexadecapole Moments (Debye-Ang^3)
      XXXX    -961.7282   XXXY       6.7275   XXYY    -194.9162
      XYYY     -11.6999   YYYY    -140.5672   XXXZ     -15.9741
      XXYZ      -5.3366   XYYZ      -5.2811   YYYZ     -14.0026
      XXZZ    -178.9690   XYZZ      -6.5180   YYZZ     -34.5862
      XZZZ     -25.9667   YZZZ     -14.3349   ZZZZ     -69.1050
 -----------------------------------------------------------------

 Q-Chem fatal error occurred in module /Users/albrecht/opt/build/qchem/4.3/trunk_release/libmdc/newfileman.C, line 289:

 Error reading in TMP file 73/0 (8)

