--------------------------------------------------------------------------
MPI_ABORT was invoked on rank 0 in communicator MPI_COMM_WORLD 
with errorcode 1.

NOTE: invoking MPI_ABORT causes Open MPI to kill all MPI processes.
You may or may not see output from other processes, depending on
exactly when Open MPI kills them.
--------------------------------------------------------------------------


 ********************************************
 *** ERROR in open_file (MODULE cp_files) ***
 ********************************************

 *** The specified OLD file <2d_polymer.coord> cannot be opened. It does ***
 *** not exist.                                                          ***

 *** Program stopped at line number 398 of MODULE cp_files ***

 ===== Routine Calling Stack ===== 

            4 parser_read_line_low
            3 parser_read_line
            2 section_vals_parse
            1 read_input
 CP2K| Abnormal program termination, stopped by process number 0
--------------------------------------------------------------------------
WARNING: A process refused to die despite all the efforts!
This process may still be running and/or consuming resources.

Host: n252
PID:  36291

--------------------------------------------------------------------------
