/home/ben/opt/apps/qchem/qchem_python/exe/qcprog.exe .pcm.in.22563.qcin.1 /home/ben/scratch/qchem/qchem22563/
                  Welcome to Q-Chem
     A Quantum Leap Into The Future Of Chemistry


 Q-Chem 4.2, Q-Chem, Inc., Pleasanton, CA (2014).

 Y. Shao,  Z. Gan,  E. Epifanovsky,  A. T. B. Gilbert,  M. Wormit,  
 J. Kussmann,  A. W. Lange,  A. Behn,  J. Deng,  X. Feng,  D. Ghosh,  
 M. Goldey,  P. R. Horn,  L. D. Jacobson,  I. Kaliman,  R. Z. Khaliullin,  
 T. Kus,  A. Landau,  J. Liu,  E. I. Proynov,  Y. M. Rhee,  R. M. Richard,  
 M. A. Rohrdanz,  R. P. Steele,  E. J. Sundstrom,  H. L. Woodcock III,  
 P. M. Zimmerman,  D. Zuev,  B. Albrecht,  E. Alguire,  B. Austin,  
 G. J. O. Beran,  Y. A. Bernard,  E. Berquist,  K. Brandhorst,  
 K. B. Bravaya,  S. T. Brown,  D. Casanova,  C.-M. Chang,  Y. Chen,  
 S. H. Chien,  K. D. Closser,  D. L. Crittenden,  M. Diedenhofen,  
 R. A. DiStasio Jr.,  H. Do,  A. D. Dutoi,  R. G. Edgar,  S. Fatehi,  
 L. Fusti-Molnar,  A. Ghysels,  A. Golubeva-Zadorozhnaya,  J. Gomes,  
 M. W. D. Hanson-Heine,  P. H. P. Harbach,  A. W. Hauser,  E. G. Hohenstein,  
 Z. C. Holden,  T.-C. Jagau,  H. Ji,  B. Kaduk,  K. Khistyaev,  Jaehoon Kim,  
 Jihan Kim,  R. A. King,  P. Klunzinger,  D. Kosenkov,  T. Kowalczyk,  
 C. M. Krauter,  K. U. Lao,  A. Laurent,  K. V. Lawler,  S. V. Levchenko,  
 C. Y. Lin,  F. Liu,  E. Livshits,  R. C. Lochan,  A. Luenser,  P. Manohar,  
 S. F. Manzer,  S.-P. Mao,  N. Mardirossian,  A. V. Marenich,  S. A. Maurer,  
 N. J. Mayhall,  C. M. Oana,  R. Olivares-Amaya,  D. P. O'Neill,  
 J. A. Parkhill,  T. M. Perrine,  R. Peverati,  P. A. Pieniazek,  A. Prociuk,  
 D. R. Rehn,  E. Rosta,  N. J. Russ,  N. Sergueev,  S. M. Sharada,  
 S. Sharma,  D. W. Small,  A. Sodt,  T. Stein,  D. Stuck,  Y.-C. Su,  
 A. J. W. Thom,  T. Tsuchimochi,  L. Vogt,  O. Vydrov,  T. Wang,  
 M. A. Watson,  J. Wenzel,  A. White,  C. F. Williams,  V. Vanovschi,  
 S. Yeganeh,  S. R. Yost,  Z.-Q. You,  I. Y. Zhang,  X. Zhang,  Y. Zhao,  
 B. R. Brooks,  G. K. L. Chan,  D. M. Chipman,  C. J. Cramer,  
 W. A. Goddard III,  M. S. Gordon,  W. J. Hehre,  A. Klamt,  
 H. F. Schaefer III,  M. W. Schmidt,  C. D. Sherrill,  D. G. Truhlar,  
 A. Warshel,  X. Xu,  A. Aspuru-Guzik,  R. Baer,  A. T. Bell,  N. A. Besley,  
 J.-D. Chai,  A. Dreuw,  B. D. Dunietz,  T. R. Furlani,  S. R. Gwaltney,  
 C.-P. Hsu,  Y. Jung,  J. Kong,  D. S. Lambrecht,  W. Liang,  C. Ochsenfeld,  
 V. A. Rassolov,  L. V. Slipchenko,  J. E. Subotnik,  T. Van Voorhis,  
 J. M. Herbert,  A. I. Krylov,  P. M. W. Gill,  M. Head-Gordon

 Contributors to earlier versions of Q-Chem not listed above: 
 R. D. Adamson,  J. Baker,  E. F. C. Byrd,  A. K. Chakraborty,  C.-L. Cheng,  
 H. Dachsel,  R. J. Doerksen,  G. Hawkins,  A. Heyden,  S. Hirata,  
 G. Kedziora,  F. J. Keil,  C. Kelley,  P. P. Korambath,  W. Kurlancheek,  
 A. M. Lee,  M. S. Lee,  D. Liotard,  I. Lotan,  P. E. Maslen,  N. Nair,  
 D. Neuhauser,  R. Olson,  B. Peters,  J. Ritchie,  N. E. Schultz,  
 N. Shenvi,  A. C. Simmonett,  K. S. Thanthiriwatte,  Q. Wu,  W. Zhang

 Q-Chem 4.2.0 for Intel X86 EM64T Linux

 Parts of Q-Chem use Armadillo 4.100.2 (Dirt Cruiser).
 http://arma.sourceforge.net/

 Q-Chem begins on Sun Mar  1 16:37:28 2015  

Host: 
0

     Scratch files written to /home/ben/scratch/qchem/qchem22563//
 Jan2915 |home|ben|opt|apps|qchem|qchem_python|libmdc|qstr_info.C -1
 Using version located at /home/ben/opt/apps/qchem/qchem_python/bin/qchem


Total Memory Limit in MB = 2000
Mega-Array Size in MB = 62
Symmetry turned off for PCM calculation
Checking the input file for consistency...	...done.
Finally everything over in PARseQInput

--------------------------------------------------------------
User input:
--------------------------------------------------------------
$molecule
  -1 1
    B         -0.56570        1.96068        0.07064
    O          0.25487        2.66727       -0.93869
    O         -1.46324        2.92335        0.73907
    O         -1.39180        0.93604       -0.59782
    H         -0.88069        3.53511        1.25833
    H          0.86420        3.26526       -0.43440
    H         -0.76724        0.36997       -1.12006
    O          0.30336        1.31482        1.08004
    H          0.95234        0.75999        0.57591
$end

$rem
jobtype          opt
basis            6-31G*
method           hf
solvent_method   pcm
$end

$pcm
theory cpcm
method swig
$end

$solvent
dielectric 7.58
$end

--------------------------------------------------------------
 ----------------------------------------------------------------
             Standard Nuclear Orientation (Angstroms)
    I     Atom           X                Y                Z
 ----------------------------------------------------------------
    1      B      -0.5657000000     1.9606800000     0.0706400000
    2      O       0.2548700000     2.6672700000    -0.9386900000
    3      O      -1.4632400000     2.9233500000     0.7390700000
    4      O      -1.3918000000     0.9360400000    -0.5978200000
    5      H      -0.8806900000     3.5351100000     1.2583300000
    6      H       0.8642000000     3.2652600000    -0.4344000000
    7      H      -0.7672400000     0.3699700000    -1.1200600000
    8      O       0.3033600000     1.3148200000     1.0800400000
    9      H       0.9523400000     0.7599900000     0.5759100000
 ----------------------------------------------------------------
 Nuclear Repulsion Energy =   183.2810637680 hartrees
 There are       21 alpha and       21 beta electrons
 Requested basis set is 6-31G(d)
 There are 28 shells and 83 basis functions

Total QAlloc Memory Limit   2000 MB
Mega-Array Size        61 MB
MEM_STATIC part        62 MB

finished with qalloc call
Get surface
PCM using dielectric constant = 7.580000
Using C-PCM dielectric factor f(eps) = (eps-1)/eps = 0.868074
 PCM solver :  Matrix Inversion
Discretize the solute cavity surface with Lebedev spheres
	Using 302 Lebedev grid points for each H atom
	Using 302 Lebedev grid points for other atoms
	Atomic van der Waals radii will be scaled by 1.20
 Serial switch compute.
 Remove points where switching function is < 1.0e-08
 Keep 1290 surface tesserae and discard 1428 interior tesserae
 Molecular Surface Area = 108.371 Angst**2
 Writing dummy charges to EXTERNAL_POINT_CHARGES_TWO) ...
Time req'd to discretize surface: 0.0 s (CPU) 0.0 s (wall)
 Time for PCM: 0.0 s (CPU) 0.0 s (wall)
 Job number = 2, Threshold = 1.00E-11
Integral type ranges set in mkLRange.C for JobNum: 2  <1-22|1-22>
Symmetry turned off temporarily
 Using the largest function pair in Schwarz integrals
Total number of integrals generated =           68115
Symmetry turned back on
 A cutoff of  1.0D-11 yielded    400 shell pairs
 There are      3615 function pairs
 Job number = 11, Threshold = 1.00E-11
Integral type ranges set in mkLRange.C for JobNum: 11  <1-21|23-23>
Total number of integrals generated =           32535
 Smallest overlap matrix eigenvalue = 3.73E-03
 Multipole matrices computed through 2nd order

  Scale SEOQF with 1.000000e-01/1.000000e-01/1.000000e+00

 Standard Electronic Orientation quadrupole field applied
 Nucleus-field energy     =    -0.0000000140 hartrees
 Guess from superposition of atomic densities
 Warning:  Energy on first SCF cycle will be non-variational
scfman initvdwdat 
 A restricted Hartree-Fock SCF calculation will be
 performed using Pulay DIIS extrapolation
 Polarizable Continuum solvation model will be applied
 SCF converges when DIIS error is below 1.0E-08
Get PCM energy
PCM using dielectric constant = 7.5800000000
Using C-PCM dielectric factor f(eps) = (eps-1)/eps = 0.868074
 PCM solver :  Matrix Inversion
 Time for PCM: 0.0 s (CPU) 0.0 s (wall)
Finding J and K together
 Job number = 22, Threshold = 1.00E-11
Integral type ranges set in mkLRange.C for JobNum: 22  <1-21|1-21>
Approximate symmetry reduction factor = 1.000000
Storing 27.82% of integrals
Total number of integrals generated =         6553462
Fock build time:  1.33 s (CPU) 1.33 s (wall)
DIIS Errors:  Max 9.30E-01 RMS 8.59E-02

Current DIIS subspace size = 1
REM_GRID_RESTART_DIIS = 0

 ---------------------------------------
  Cycle       Energy         DIIS Error
 ---------------------------------------
    1    -326.8930365479      8.59E-02  00000
Get PCM energy
PCM using dielectric constant = 7.5800000000
Using C-PCM dielectric factor f(eps) = (eps-1)/eps = 0.868074
 PCM solver :  Matrix Inversion
 Job number = 15, Threshold = 1.00E-11
Integral type ranges set in mkLRange.C for JobNum: 15  <1-21|22-22>
Symmetry turned off temporarily
Total number of integrals generated =         4663350
Symmetry turned back on
 BuildS Time: 0.04 s (CPU) 0.04 s (wall)
 C written to file 854
 Attempting to invert C...
 Time req'd to invert C: 0.47 s (CPU) 0.49 s (wall)
 C^-1 written to file 828
 Time for PCM: 0.9 s (CPU) 0.9 s (wall)
Evaluate Gaussian charge contribution to one-electron Hamiltonian from PCM charges
 Job number = 15, Threshold = 1.00E-11
Integral type ranges set in mkLRange.C for JobNum: 15  <1-21|22-22>
Symmetry turned off temporarily
Symmetry turned back on
Finding J and K together
 Job number = 22, Threshold = 1.00E-11
Integral type ranges set in mkLRange.C for JobNum: 22  <1-21|1-21>
Approximate symmetry reduction factor = 1.000000
Storing 27.82% of integrals
Reusing in-core integrals buffer for job 22
Total number of integrals generated =        11216812
Fock build time:  0.86 s (CPU) 0.86 s (wall)
DIIS Errors:  Max 1.58E-01 RMS 1.46E-02

Current DIIS subspace size = 2
REM_GRID_RESTART_DIIS = 0

    2    -326.5458911319      1.46E-02  00000
Get PCM energy
PCM using dielectric constant = 7.5800000000
Using C-PCM dielectric factor f(eps) = (eps-1)/eps = 0.868074
 PCM solver :  Matrix Inversion
 Job number = 15, Threshold = 1.00E-11
Integral type ranges set in mkLRange.C for JobNum: 15  <1-21|22-22>
Symmetry turned off temporarily
Total number of integrals generated =         4663350
Symmetry turned back on
 Time for PCM: 0.4 s (CPU) 0.4 s (wall)
Evaluate Gaussian charge contribution to one-electron Hamiltonian from PCM charges
 Job number = 15, Threshold = 1.00E-11
Integral type ranges set in mkLRange.C for JobNum: 15  <1-21|22-22>
Symmetry turned off temporarily
Symmetry turned back on
Finding J and K together
 Job number = 22, Threshold = 1.00E-11
Integral type ranges set in mkLRange.C for JobNum: 22  <1-21|1-21>
Approximate symmetry reduction factor = 1.000000
Storing 27.82% of integrals
Reusing in-core integrals buffer for job 22
Total number of integrals generated =        11216812
Fock build time:  0.86 s (CPU) 0.86 s (wall)
DIIS Errors:  Max 9.81E-02 RMS 7.68E-03

Current DIIS subspace size = 3
REM_GRID_RESTART_DIIS = 0

    3    -326.6647149568      7.68E-03  00000
Get PCM energy
PCM using dielectric constant = 7.5800000000
Using C-PCM dielectric factor f(eps) = (eps-1)/eps = 0.868074
 PCM solver :  Matrix Inversion
 Job number = 15, Threshold = 1.00E-11
Integral type ranges set in mkLRange.C for JobNum: 15  <1-21|22-22>
Symmetry turned off temporarily
Total number of integrals generated =         4663350
Symmetry turned back on
 Time for PCM: 0.4 s (CPU) 0.4 s (wall)
Evaluate Gaussian charge contribution to one-electron Hamiltonian from PCM charges
 Job number = 15, Threshold = 1.00E-11
Integral type ranges set in mkLRange.C for JobNum: 15  <1-21|22-22>
Symmetry turned off temporarily
Symmetry turned back on
Finding J and K together
 Job number = 22, Threshold = 1.00E-11
Integral type ranges set in mkLRange.C for JobNum: 22  <1-21|1-21>
Approximate symmetry reduction factor = 1.000000
Storing 27.82% of integrals
Reusing in-core integrals buffer for job 22
Total number of integrals generated =        11216812
Fock build time:  0.86 s (CPU) 0.86 s (wall)
DIIS Errors:  Max 6.13E-03 RMS 7.78E-04

Current DIIS subspace size = 4
REM_GRID_RESTART_DIIS = 0

    4    -326.6991481699      7.78E-04  00000
Get PCM energy
PCM using dielectric constant = 7.5800000000
Using C-PCM dielectric factor f(eps) = (eps-1)/eps = 0.868074
 PCM solver :  Matrix Inversion
 Job number = 15, Threshold = 1.00E-11
Integral type ranges set in mkLRange.C for JobNum: 15  <1-21|22-22>
Symmetry turned off temporarily
Total number of integrals generated =         4663350
Symmetry turned back on
 Time for PCM: 0.4 s (CPU) 0.4 s (wall)
Evaluate Gaussian charge contribution to one-electron Hamiltonian from PCM charges
 Job number = 15, Threshold = 1.00E-11
Integral type ranges set in mkLRange.C for JobNum: 15  <1-21|22-22>
Symmetry turned off temporarily
Symmetry turned back on
Finding J and K together
 Job number = 22, Threshold = 1.00E-11
Integral type ranges set in mkLRange.C for JobNum: 22  <1-21|1-21>
Approximate symmetry reduction factor = 1.000000
Storing 27.82% of integrals
Reusing in-core integrals buffer for job 22
Total number of integrals generated =        11216812
Fock build time:  0.86 s (CPU) 0.86 s (wall)
DIIS Errors:  Max 1.64E-03 RMS 1.65E-04

Current DIIS subspace size = 5
REM_GRID_RESTART_DIIS = 0

    5    -326.7000146427      1.65E-04  00000
Get PCM energy
PCM using dielectric constant = 7.5800000000
Using C-PCM dielectric factor f(eps) = (eps-1)/eps = 0.868074
 PCM solver :  Matrix Inversion
 Job number = 15, Threshold = 1.00E-11
Integral type ranges set in mkLRange.C for JobNum: 15  <1-21|22-22>
Symmetry turned off temporarily
Total number of integrals generated =         4663350
Symmetry turned back on
 Time for PCM: 0.4 s (CPU) 0.4 s (wall)
Evaluate Gaussian charge contribution to one-electron Hamiltonian from PCM charges
 Job number = 15, Threshold = 1.00E-11
Integral type ranges set in mkLRange.C for JobNum: 15  <1-21|22-22>
Symmetry turned off temporarily
Symmetry turned back on
Finding J and K together
 Job number = 22, Threshold = 1.00E-11
Integral type ranges set in mkLRange.C for JobNum: 22  <1-21|1-21>
Approximate symmetry reduction factor = 1.000000
Storing 27.82% of integrals
Reusing in-core integrals buffer for job 22
Total number of integrals generated =        11216812
Fock build time:  0.86 s (CPU) 0.86 s (wall)
DIIS Errors:  Max 6.77E-04 RMS 5.28E-05

Current DIIS subspace size = 6
REM_GRID_RESTART_DIIS = 0

    6    -326.7000570858      5.28E-05  00000
Get PCM energy
PCM using dielectric constant = 7.5800000000
Using C-PCM dielectric factor f(eps) = (eps-1)/eps = 0.868074
 PCM solver :  Matrix Inversion
 Job number = 15, Threshold = 1.00E-11
Integral type ranges set in mkLRange.C for JobNum: 15  <1-21|22-22>
Symmetry turned off temporarily
Total number of integrals generated =         4663350
Symmetry turned back on
 Time for PCM: 0.4 s (CPU) 0.4 s (wall)
Evaluate Gaussian charge contribution to one-electron Hamiltonian from PCM charges
 Job number = 15, Threshold = 1.00E-11
Integral type ranges set in mkLRange.C for JobNum: 15  <1-21|22-22>
Symmetry turned off temporarily
Symmetry turned back on
Finding J and K together
 Job number = 22, Threshold = 1.00E-11
Integral type ranges set in mkLRange.C for JobNum: 22  <1-21|1-21>
Approximate symmetry reduction factor = 1.000000
Storing 27.82% of integrals
Reusing in-core integrals buffer for job 22
Total number of integrals generated =        11216812
Fock build time:  0.86 s (CPU) 0.86 s (wall)
DIIS Errors:  Max 2.96E-04 RMS 2.17E-05

Current DIIS subspace size = 7
REM_GRID_RESTART_DIIS = 0

    7    -326.7000609264      2.17E-05  00000
Get PCM energy
PCM using dielectric constant = 7.5800000000
Using C-PCM dielectric factor f(eps) = (eps-1)/eps = 0.868074
 PCM solver :  Matrix Inversion
 Job number = 15, Threshold = 1.00E-11
Integral type ranges set in mkLRange.C for JobNum: 15  <1-21|22-22>
Symmetry turned off temporarily
Total number of integrals generated =         4663350
Symmetry turned back on
 Time for PCM: 0.4 s (CPU) 0.4 s (wall)
Evaluate Gaussian charge contribution to one-electron Hamiltonian from PCM charges
 Job number = 15, Threshold = 1.00E-11
Integral type ranges set in mkLRange.C for JobNum: 15  <1-21|22-22>
Symmetry turned off temporarily
Symmetry turned back on
Finding J and K together
 Job number = 22, Threshold = 1.00E-11
Integral type ranges set in mkLRange.C for JobNum: 22  <1-21|1-21>
Approximate symmetry reduction factor = 1.000000
Storing 27.82% of integrals
Reusing in-core integrals buffer for job 22
Total number of integrals generated =        11216812
Fock build time:  0.86 s (CPU) 0.86 s (wall)
DIIS Errors:  Max 5.83E-05 RMS 4.50E-06

Current DIIS subspace size = 8
REM_GRID_RESTART_DIIS = 0

    8    -326.7000615055      4.50E-06  00000
Get PCM energy
PCM using dielectric constant = 7.5800000000
Using C-PCM dielectric factor f(eps) = (eps-1)/eps = 0.868074
 PCM solver :  Matrix Inversion
 Job number = 15, Threshold = 1.00E-11
Integral type ranges set in mkLRange.C for JobNum: 15  <1-21|22-22>
Symmetry turned off temporarily
Total number of integrals generated =         4663350
Symmetry turned back on
 Time for PCM: 0.4 s (CPU) 0.4 s (wall)
Evaluate Gaussian charge contribution to one-electron Hamiltonian from PCM charges
 Job number = 15, Threshold = 1.00E-11
Integral type ranges set in mkLRange.C for JobNum: 15  <1-21|22-22>
Symmetry turned off temporarily
Symmetry turned back on
Finding J and K together
 Job number = 22, Threshold = 1.00E-11
Integral type ranges set in mkLRange.C for JobNum: 22  <1-21|1-21>
Approximate symmetry reduction factor = 1.000000
Storing 27.82% of integrals
Reusing in-core integrals buffer for job 22
Total number of integrals generated =        11216812
Fock build time:  0.86 s (CPU) 0.86 s (wall)
DIIS Errors:  Max 7.75E-06 RMS 9.29E-07

Current DIIS subspace size = 9
REM_GRID_RESTART_DIIS = 0

    9    -326.7000615375      9.29E-07  00000
Get PCM energy
PCM using dielectric constant = 7.5800000000
Using C-PCM dielectric factor f(eps) = (eps-1)/eps = 0.868074
 PCM solver :  Matrix Inversion
 Job number = 15, Threshold = 1.00E-11
Integral type ranges set in mkLRange.C for JobNum: 15  <1-21|22-22>
Symmetry turned off temporarily
Total number of integrals generated =         4663350
Symmetry turned back on
 Time for PCM: 0.4 s (CPU) 0.4 s (wall)
Evaluate Gaussian charge contribution to one-electron Hamiltonian from PCM charges
 Job number = 15, Threshold = 1.00E-11
Integral type ranges set in mkLRange.C for JobNum: 15  <1-21|22-22>
Symmetry turned off temporarily
Symmetry turned back on
Finding J and K together
 Job number = 22, Threshold = 1.00E-11
Integral type ranges set in mkLRange.C for JobNum: 22  <1-21|1-21>
Approximate symmetry reduction factor = 1.000000
Storing 27.82% of integrals
Reusing in-core integrals buffer for job 22
Total number of integrals generated =        11216812
Fock build time:  0.86 s (CPU) 0.86 s (wall)
DIIS Errors:  Max 1.24E-06 RMS 1.39E-07

Current DIIS subspace size = 10
REM_GRID_RESTART_DIIS = 0

   10    -326.7000615386      1.39E-07  00000
Get PCM energy
PCM using dielectric constant = 7.5800000000
Using C-PCM dielectric factor f(eps) = (eps-1)/eps = 0.868074
 PCM solver :  Matrix Inversion
 Job number = 15, Threshold = 1.00E-11
Integral type ranges set in mkLRange.C for JobNum: 15  <1-21|22-22>
Symmetry turned off temporarily
Total number of integrals generated =         4663350
Symmetry turned back on
 Time for PCM: 0.4 s (CPU) 0.4 s (wall)
Evaluate Gaussian charge contribution to one-electron Hamiltonian from PCM charges
 Job number = 15, Threshold = 1.00E-11
Integral type ranges set in mkLRange.C for JobNum: 15  <1-21|22-22>
Symmetry turned off temporarily
Symmetry turned back on
Finding J and K together
 Job number = 22, Threshold = 1.00E-11
Integral type ranges set in mkLRange.C for JobNum: 22  <1-21|1-21>
Approximate symmetry reduction factor = 1.000000
Storing 27.82% of integrals
Reusing in-core integrals buffer for job 22
Total number of integrals generated =        11216812
Fock build time:  0.86 s (CPU) 0.86 s (wall)
DIIS Errors:  Max 3.52E-07 RMS 3.08E-08
 Singularity in Pulay DIIS matrix

Current DIIS subspace size = 11
REM_GRID_RESTART_DIIS = 0

NextCycle: DoReset = 1
   11    -326.7000615386      3.08E-08  00000
Get PCM energy
PCM using dielectric constant = 7.5800000000
Using C-PCM dielectric factor f(eps) = (eps-1)/eps = 0.868074
 PCM solver :  Matrix Inversion
 Job number = 15, Threshold = 1.00E-11
Integral type ranges set in mkLRange.C for JobNum: 15  <1-21|22-22>
Symmetry turned off temporarily
Total number of integrals generated =         4663350
Symmetry turned back on
 Time for PCM: 0.4 s (CPU) 0.4 s (wall)
Evaluate Gaussian charge contribution to one-electron Hamiltonian from PCM charges
 Job number = 15, Threshold = 1.00E-11
Integral type ranges set in mkLRange.C for JobNum: 15  <1-21|22-22>
Symmetry turned off temporarily
Symmetry turned back on
Finding J and K together
 Job number = 22, Threshold = 1.00E-11
Integral type ranges set in mkLRange.C for JobNum: 22  <1-21|1-21>
Approximate symmetry reduction factor = 1.000000
Storing 27.82% of integrals
Reusing in-core integrals buffer for job 22
Total number of integrals generated =        11216812
Fock build time:  0.86 s (CPU) 0.86 s (wall)
DIIS Errors:  Max 1.89E-07 RMS 1.31E-08

Current DIIS subspace size = 2
REM_GRID_RESTART_DIIS = 0

   12    -326.7000615386      1.31E-08  00000
Get PCM energy
PCM using dielectric constant = 7.5800000000
Using C-PCM dielectric factor f(eps) = (eps-1)/eps = 0.868074
 PCM solver :  Matrix Inversion
 Job number = 15, Threshold = 1.00E-11
Integral type ranges set in mkLRange.C for JobNum: 15  <1-21|22-22>
Symmetry turned off temporarily
Total number of integrals generated =         4663350
Symmetry turned back on
 Time for PCM: 0.4 s (CPU) 0.4 s (wall)
Evaluate Gaussian charge contribution to one-electron Hamiltonian from PCM charges
 Job number = 15, Threshold = 1.00E-11
Integral type ranges set in mkLRange.C for JobNum: 15  <1-21|22-22>
Symmetry turned off temporarily
Symmetry turned back on
Finding J and K together
 Job number = 22, Threshold = 1.00E-11
Integral type ranges set in mkLRange.C for JobNum: 22  <1-21|1-21>
Approximate symmetry reduction factor = 1.000000
Storing 27.82% of integrals
Reusing in-core integrals buffer for job 22
Total number of integrals generated =        11216812
Fock build time:  0.86 s (CPU) 0.86 s (wall)
DIIS Errors:  Max 7.74E-08 RMS 4.38E-09

Current DIIS subspace size = 3
REM_GRID_RESTART_DIIS = 0

Get PCM energy
PCM using dielectric constant = 7.5800000000
Using C-PCM dielectric factor f(eps) = (eps-1)/eps = 0.868074
 PCM solver :  Matrix Inversion
 Job number = 15, Threshold = 1.00E-11
Integral type ranges set in mkLRange.C for JobNum: 15  <1-21|22-22>
Symmetry turned off temporarily
Total number of integrals generated =         4663350
Symmetry turned back on
 Time for PCM: 0.4 s (CPU) 0.4 s (wall)
   13    -326.7000615386      4.38E-09  00000 Convergence criterion met
 ---------------------------------------

************** Final PCM Free Energy Summary **************
 G_electrostatic  =      -0.10986529 hartree =     -68.94150747 kcal/mol
 G_cavitation     =       0.00000000 hartree =       0.00000000 kcal/mol
 G_dispersion     =       0.00000000 hartree =       0.00000000 kcal/mol
 G_repulsion      =       0.00000000 hartree =       0.00000000 kcal/mol
 --------------------------------------------------
 Non-electrostatic Free Energy =       0.00000000 hartree =       0.00000000 kcal/mol
 Total                         =      -0.10986529 hartree =     -68.94150747 kcal/mol
 --------------------------------------------------
 SCF Energy (H0 + V/2)                       =    -326.70006154 
 Solute Internal Energy (H0)                 =    -326.59019625 
 Total Free Energy (H0 + V/2 + non-elec)     =    -326.70006154 hartree
                                             = -205007.38279177 kcal/mol
***********************************************************

 SCF time:  CPU 20.96 s  wall 20.98 s
 SCF   energy in the final basis set = -326.7000615386
 Total energy in the final basis set = -326.7000615386
Symmetry turned off temporarily
 Analysis of SCF Wavefunction
 
 --------------------------------------------------------------
                    Orbital Energies (a.u.)
 --------------------------------------------------------------
 
 Alpha MOs
 -- Occupied --
-20.467 -20.467 -20.467 -20.467  -7.569  -1.286  -1.220  -1.215
 -1.215  -0.667  -0.606  -0.596  -0.536  -0.521  -0.515  -0.463
 -0.440  -0.425  -0.400  -0.382  -0.376
 -- Virtual --
  0.252   0.302   0.339   0.347   0.533   0.539   0.575   0.633
  0.794   0.816   0.833   0.861   1.047   1.122   1.128   1.166
  1.182   1.201   1.226   1.313   1.328   1.394   1.419   1.446
  1.469   1.506   1.565   1.607   1.643   1.672   1.719   1.883
  1.888   1.979   1.993   2.046   2.072   2.129   2.135   2.189
  2.195   2.241   2.257   2.284   2.633   2.660   2.693   2.720
  2.757   2.807   2.865   2.992   3.048   3.129   3.141   3.230
  3.238   4.076   4.181   4.343   4.353   4.539
 --------------------------------------------------------------
 
          Ground-State Mulliken Net Atomic Charges

     Atom                 Charge (a.u.)
  ----------------------------------------
      1 B                     0.919823
      2 O                    -0.890391
      3 O                    -0.880471
      4 O                    -0.880530
      5 H                     0.407153
      6 H                     0.403786
      7 H                     0.407170
      8 O                    -0.890306
      9 H                     0.403766
  ----------------------------------------
  Sum of atomic charges =    -1.000000

 -----------------------------------------------------------------
                    Cartesian Multipole Moments
 -----------------------------------------------------------------
    Charge (ESU x 10^10)
                -4.8032
    Dipole Moment (Debye)
         X       7.1248      Y      -9.2582      Z      -0.3448
       Tot      11.6874
    Quadrupole Moments (Debye-Ang)
        XX     -41.4958     XY      13.6233     YY     -45.7186
        XZ       0.3067     YZ       4.9186     ZZ     -37.4659
    Octopole Moments (Debye-Ang^2)
       XXX      73.9585    XXY     -81.4365    XYY      52.3865
       YYY    -197.1892    XXZ      -3.0568    XYZ       2.2405
       YYZ      18.9999    XZZ      15.9515    YZZ     -72.8746
       ZZZ      -7.9623
    Hexadecapole Moments (Debye-Ang^3)
      XXXX    -230.4626   XXXY     145.3949   XXYY    -226.1175
      XYYY     203.8778   YYYY    -831.8236   XXXZ       6.2751
      XXYZ     -15.7779   XYYZ       8.4305   YYYZ      63.7012
      XXZZ     -63.1350   XYZZ      31.1054   YYZZ    -184.0941
      XZZZ       2.9691   YZZZ      -3.4809   ZZZZ    -149.8064
 -----------------------------------------------------------------
 Calculating analytic gradient of the SCF energy
 Job number = 111, Threshold = 1.00E-11
Integral type ranges set in mkLRange.C for JobNum: 11  <1-21|23-23>
Total number of integrals generated =           32535
Finding J and K together
 ML is being used
 Job number = 122, Threshold = 1.00E-11
Integral type ranges set in mkLRange.C for JobNum: 22  <1-21|1-21>
Total number of integrals generated =         6165556
 Gradient of Coulomb and Exchange Energy
            1           2           3           4           5           6
    1  -0.9277734  -6.1771705  11.8473810  11.2243666  -1.8363380  -2.6933663
    2  -0.0338505  -5.2714803  -8.2245684   9.0631749  -2.7505877  -2.5866545
    3   0.0024904  12.4637447  -5.1085573   5.0961412  -2.2997727  -1.4985168
            7           8           9
    1  -2.0274306  -6.5442027  -2.8654660
    2   2.6026584   4.8063482   2.3949598
    3   2.3110730 -12.4644513   1.4978489
 Gradient of SCF Energy
            1           2           3           4           5           6
    1   0.0021766  -0.0296282   0.0024809   0.0007449   0.0137666   0.0127288
    2   0.0000529  -0.0134137  -0.0240286   0.0241123   0.0131368   0.0127151
    3   0.0000398   0.0053648  -0.0213465   0.0213830   0.0082567   0.0124783
            7           8           9
    1   0.0146583  -0.0304969   0.0135690
    2  -0.0120724   0.0112755  -0.0117780
    3  -0.0083087  -0.0053983  -0.0124690
 Max gradient component =       3.050E-02
 RMS gradient           =       1.500E-02
Get PCM gradient
PCM using dielectric constant = 7.5800000
Using C-PCM dielectric factor f(eps) = (eps-1)/eps = 0.868074
 PCM solver :  Matrix Inversion
 Computing fast CPCM-SWIG gradient.
 Job number = 115, Threshold = 1.00E-11
Integral type ranges set in mkLRange.C for JobNum: 15  <1-21|22-22>
Symmetry turned off temporarily
Total number of integrals generated =         4663350
Symmetry turned back on
Updating gradient with PCM contributions...
 -- total gradient after adding PCM contribution --
---------------------------------------------------
  Atom         X              Y              Z     
---------------------------------------------------
   1       0.007149       0.000185       0.000070
   2      -0.028588      -0.019307      -0.021209
   3      -0.027557      -0.015404      -0.023392
   4      -0.028617       0.013324       0.023472
   5       0.026746       0.026406       0.021936
   6       0.025224       0.025715       0.023471
   7       0.028547      -0.024301      -0.022074
   8      -0.029843       0.017300       0.021203
   9       0.026939      -0.023917      -0.023477
---------------------------------------------------
Number of fixed atoms: 0
 Time req'd to calc PCM grad: 3.5 s (CPU) 3.5 s (wall)
 Time for PCM: 3.5 s (CPU) 3.5 s (wall)
PCM gradient status: 0
 Gradient time:  CPU 12.11 s  wall 12.35 s
 ------------------------------------------------------------------------------
                     drvman        : Timing summary (seconds)
 ------------------------------------------------------------------------------
     job step          cpu (% of tot)      sys (% of tot)     wall (% of tot)
 ------------------------------------------------------------------------------
 ------------------------------------------------------------------------------
   Grand Totals     0.1211E+02          0.0000E+00          0.1235E+02
 ------------------------------------------------------------------------------
 Geometry Optimization Parameters
   NAtoms,    NIC,     NZ,  NCons,   NDum,   NFix, NCnnct, MaxDiis
        9      48       0       0       0       0       0       0


** GEOMETRY OPTIMIZATION IN DELOCALIZED INTERNAL COORDINATES **
   Searching for a Minimum

   Optimization Cycle:   1

                       Coordinates (Angstroms)
     ATOM                X               Y               Z
      1  B        -0.5657000000    1.9606800000    0.0706400000
      2  O         0.2548700000    2.6672700000   -0.9386900000
      3  O        -1.4632400000    2.9233500000    0.7390700000
      4  O        -1.3918000000    0.9360400000   -0.5978200000
      5  H        -0.8806900000    3.5351100000    1.2583300000
      6  H         0.8642000000    3.2652600000   -0.4344000000
      7  H        -0.7672400000    0.3699700000   -1.1200600000
      8  O         0.3033600000    1.3148200000    1.0800400000
      9  H         0.9523400000    0.7599900000    0.5759100000
   Point Group: c1    Number of degrees of freedom:    21


   Energy is   -326.700061539


 Attempting to Generate Delocalized Internal Coordinates
 GETINT wrote B to file, NVib is           21
 calling HSSCONV
 HCONV 3*NATOMS:           27
 wrote HINT to file
  writing hessian 

 21 Hessian modes will be used to form the next step
  Hessian Eigenvalues:
     0.014281    0.014284    0.014826    0.014829    0.106104    0.108712
     0.111406    0.160000    0.160000    0.160000    0.160000    0.202804
     0.202998    0.345328    0.345352    0.350083    0.350105    0.491985
     0.491985    0.492042    0.492066

 Minimum Search - Taking Simple RFO Step
 Searching for Lamda that Minimizes Along All modes
 Value Taken    Lamda =  -0.01806419
 Step Taken.  Stepsize is  0.212774

                             Maximum     Tolerance    Cnvgd?
         Gradient           0.060254      0.000300      NO
         Displacement       0.113969      0.001200      NO
         Energy change     *********      0.000001      NO


 New Cartesian Coordinates Obtained by Inverse Iteration

 Displacement from previous Coordinates is:  0.380786
 ----------------------------------------------------------------
             Standard Nuclear Orientation (Angstroms)
    I     Atom           X                Y                Z
 ----------------------------------------------------------------
    1      B      -0.5497328550     1.9614294276     0.0704791566
    2      O       0.2823190263     2.6351839214    -0.9525383429
    3      O      -1.4630765084     2.8796697039     0.7575734494
    4      O      -1.3946203141     0.9796152050    -0.6162946144
    5      H      -0.9327487860     3.4674280646     1.2763220939
    6      H       0.8880550521     3.2037825247    -0.4979768940
    7      H      -0.8237774274     0.4335690422    -1.1376262348
    8      O       0.3282711634     1.3489979576     1.0936472893
    9      H       0.9714106490     0.8228141529     0.6394340968
 ----------------------------------------------------------------
 Nuclear Repulsion Energy =   184.7272673162 hartrees
 There are       21 alpha and       21 beta electrons
 JobOver = FALSE
Get surface
PCM using dielectric constant = 7.5800000
Using C-PCM dielectric factor f(eps) = (eps-1)/eps = 0.868074
 PCM solver :  Matrix Inversion
Discretize the solute cavity surface with Lebedev spheres
	Using 302 Lebedev grid points for each H atom
	Using 302 Lebedev grid points for other atoms
	Atomic van der Waals radii will be scaled by 1.20
 Serial switch compute.
 Remove points where switching function is < 1.0e-08
 Keep 1278 surface tesserae and discard 1440 interior tesserae
 Molecular Surface Area = 107.396 Angst**2
 Writing dummy charges to EXTERNAL_POINT_CHARGES_TWO) ...
Time req'd to discretize surface: 0.0 s (CPU) 0.0 s (wall)
 Time for PCM: 0.0 s (CPU) 0.0 s (wall)
 Applying Cartesian multipole field
    Component          Value
    ---------          -----
     (2,0,0)        1.00000E-11
     (0,2,0)        2.00000E-11
     (0,0,2)       -3.00000E-10
 Nucleus-field energy     =    -0.0000000154 hartrees
 Requested basis set is 6-31G(d)
 There are 28 shells and 83 basis functions
 Job number = 2, Threshold = 1.00E-11
Integral type ranges set in mkLRange.C for JobNum: 2  <1-22|1-22>
Symmetry turned off temporarily
Total number of integrals generated =           68103
Symmetry turned back on
 A cutoff of  1.0D-11 yielded    400 shell pairs
 There are      3615 function pairs
 Job number = 11, Threshold = 1.00E-11
Integral type ranges set in mkLRange.C for JobNum: 11  <1-21|23-23>
Total number of integrals generated =           32535
 Smallest overlap matrix eigenvalue = 3.83E-03
 Multipole matrices computed through 2nd order
 Guess MOs from SCF MO coefficient file
Reading MOs from coefficient file
Reading MOs from coefficient file
 A restricted Hartree-Fock SCF calculation will be
 performed using Pulay DIIS extrapolation
 Polarizable Continuum solvation model will be applied
 SCF converges when DIIS error is below 1.0E-08
Geometry optimization detected.  Setting ReadMinima to 0
Setting SaveMinima to 0
Get PCM energy
PCM using dielectric constant = 7.5800000000
Using C-PCM dielectric factor f(eps) = (eps-1)/eps = 0.868074
 PCM solver :  Matrix Inversion
 Time for PCM: 0.0 s (CPU) 0.0 s (wall)
Finding J and K together
 Job number = 22, Threshold = 1.00E-11
Integral type ranges set in mkLRange.C for JobNum: 22  <1-21|1-21>
Storing 27.82% of integrals
Total number of integrals generated =         6586928
Fock build time:  1.34 s (CPU) 1.34 s (wall)
DIIS Errors:  Max 4.80E-02 RMS 4.42E-03

Current DIIS subspace size = 1
REM_GRID_RESTART_DIIS = 0

 ---------------------------------------
  Cycle       Energy         DIIS Error
 ---------------------------------------
    1    -326.6844449837      4.42E-03  00000
Get PCM energy
PCM using dielectric constant = 7.5800000000
Using C-PCM dielectric factor f(eps) = (eps-1)/eps = 0.868074
 PCM solver :  Matrix Inversion
 Job number = 15, Threshold = 1.00E-11
Integral type ranges set in mkLRange.C for JobNum: 15  <1-21|22-22>
Symmetry turned off temporarily
Total number of integrals generated =         4619970
Symmetry turned back on
 BuildS Time: 0.03 s (CPU) 0.03 s (wall)
 C written to file 854
 Attempting to invert C...
 Time req'd to invert C: 0.48 s (CPU) 0.48 s (wall)
 C^-1 written to file 828
 Time for PCM: 0.9 s (CPU) 0.9 s (wall)
Evaluate Gaussian charge contribution to one-electron Hamiltonian from PCM charges
 Job number = 15, Threshold = 1.00E-11
Integral type ranges set in mkLRange.C for JobNum: 15  <1-21|22-22>
Symmetry turned off temporarily
Symmetry turned back on
Finding J and K together
 Job number = 22, Threshold = 1.00E-11
Integral type ranges set in mkLRange.C for JobNum: 22  <1-21|1-21>
Storing 27.82% of integrals
Reusing in-core integrals buffer for job 22
Total number of integrals generated =        11174363
Fock build time:  0.86 s (CPU) 0.86 s (wall)
DIIS Errors:  Max 1.20E-02 RMS 1.31E-03

Current DIIS subspace size = 2
REM_GRID_RESTART_DIIS = 0

    2    -326.7067626374      1.31E-03  00000
Get PCM energy
PCM using dielectric constant = 7.5800000000
Using C-PCM dielectric factor f(eps) = (eps-1)/eps = 0.868074
 PCM solver :  Matrix Inversion
 Job number = 15, Threshold = 1.00E-11
Integral type ranges set in mkLRange.C for JobNum: 15  <1-21|22-22>
Symmetry turned off temporarily
Total number of integrals generated =         4619970
Symmetry turned back on
 Time for PCM: 0.3 s (CPU) 0.3 s (wall)
Evaluate Gaussian charge contribution to one-electron Hamiltonian from PCM charges
 Job number = 15, Threshold = 1.00E-11
Integral type ranges set in mkLRange.C for JobNum: 15  <1-21|22-22>
Symmetry turned off temporarily
Symmetry turned back on
Finding J and K together
 Job number = 22, Threshold = 1.00E-11
Integral type ranges set in mkLRange.C for JobNum: 22  <1-21|1-21>
Storing 27.82% of integrals
Reusing in-core integrals buffer for job 22
Total number of integrals generated =        11174363
Fock build time:  0.86 s (CPU) 0.87 s (wall)
DIIS Errors:  Max 7.54E-03 RMS 5.37E-04

Current DIIS subspace size = 3
REM_GRID_RESTART_DIIS = 0

    3    -326.7091949883      5.37E-04  00000
Get PCM energy
PCM using dielectric constant = 7.5800000000
Using C-PCM dielectric factor f(eps) = (eps-1)/eps = 0.868074
 PCM solver :  Matrix Inversion
 Job number = 15, Threshold = 1.00E-11
Integral type ranges set in mkLRange.C for JobNum: 15  <1-21|22-22>
Symmetry turned off temporarily
Total number of integrals generated =         4619970
Symmetry turned back on
 Time for PCM: 0.4 s (CPU) 0.4 s (wall)
Evaluate Gaussian charge contribution to one-electron Hamiltonian from PCM charges
 Job number = 15, Threshold = 1.00E-11
Integral type ranges set in mkLRange.C for JobNum: 15  <1-21|22-22>
Symmetry turned off temporarily
Symmetry turned back on
Finding J and K together
 Job number = 22, Threshold = 1.00E-11
Integral type ranges set in mkLRange.C for JobNum: 22  <1-21|1-21>
Storing 27.82% of integrals
Reusing in-core integrals buffer for job 22
Total number of integrals generated =        11174363
Fock build time:  0.87 s (CPU) 0.87 s (wall)
DIIS Errors:  Max 2.25E-03 RMS 2.11E-04

Current DIIS subspace size = 4
REM_GRID_RESTART_DIIS = 0

    4    -326.7095537292      2.11E-04  00000
Get PCM energy
PCM using dielectric constant = 7.5800000000
Using C-PCM dielectric factor f(eps) = (eps-1)/eps = 0.868074
 PCM solver :  Matrix Inversion
 Job number = 15, Threshold = 1.00E-11
Integral type ranges set in mkLRange.C for JobNum: 15  <1-21|22-22>
Symmetry turned off temporarily
Total number of integrals generated =         4619970
Symmetry turned back on
 Time for PCM: 0.3 s (CPU) 0.3 s (wall)
Evaluate Gaussian charge contribution to one-electron Hamiltonian from PCM charges
 Job number = 15, Threshold = 1.00E-11
Integral type ranges set in mkLRange.C for JobNum: 15  <1-21|22-22>
Symmetry turned off temporarily
Symmetry turned back on
Finding J and K together
 Job number = 22, Threshold = 1.00E-11
Integral type ranges set in mkLRange.C for JobNum: 22  <1-21|1-21>
Storing 27.82% of integrals
Reusing in-core integrals buffer for job 22
Total number of integrals generated =        11174363
Fock build time:  0.86 s (CPU) 0.86 s (wall)
DIIS Errors:  Max 9.97E-04 RMS 6.59E-05

Current DIIS subspace size = 5
REM_GRID_RESTART_DIIS = 0

    5    -326.7096528854      6.59E-05  00000
Get PCM energy
PCM using dielectric constant = 7.5800000000
Using C-PCM dielectric factor f(eps) = (eps-1)/eps = 0.868074
 PCM solver :  Matrix Inversion
 Job number = 15, Threshold = 1.00E-11
Integral type ranges set in mkLRange.C for JobNum: 15  <1-21|22-22>
Symmetry turned off temporarily
Total number of integrals generated =         4619970
Symmetry turned back on
 Time for PCM: 0.3 s (CPU) 0.3 s (wall)
Evaluate Gaussian charge contribution to one-electron Hamiltonian from PCM charges
 Job number = 15, Threshold = 1.00E-11
Integral type ranges set in mkLRange.C for JobNum: 15  <1-21|22-22>
Symmetry turned off temporarily
Symmetry turned back on
Finding J and K together
 Job number = 22, Threshold = 1.00E-11
Integral type ranges set in mkLRange.C for JobNum: 22  <1-21|1-21>
Storing 27.82% of integrals
Reusing in-core integrals buffer for job 22
Total number of integrals generated =        11174363
Fock build time:  0.87 s (CPU) 0.87 s (wall)
DIIS Errors:  Max 2.02E-04 RMS 1.64E-05

Current DIIS subspace size = 6
REM_GRID_RESTART_DIIS = 0

    6    -326.7096599173      1.64E-05  00000
Get PCM energy
PCM using dielectric constant = 7.5800000000
Using C-PCM dielectric factor f(eps) = (eps-1)/eps = 0.868074
 PCM solver :  Matrix Inversion
 Job number = 15, Threshold = 1.00E-11
Integral type ranges set in mkLRange.C for JobNum: 15  <1-21|22-22>
Symmetry turned off temporarily
Total number of integrals generated =         4619970
Symmetry turned back on
 Time for PCM: 0.3 s (CPU) 0.3 s (wall)
Evaluate Gaussian charge contribution to one-electron Hamiltonian from PCM charges
 Job number = 15, Threshold = 1.00E-11
Integral type ranges set in mkLRange.C for JobNum: 15  <1-21|22-22>
Symmetry turned off temporarily
Symmetry turned back on
Finding J and K together
 Job number = 22, Threshold = 1.00E-11
Integral type ranges set in mkLRange.C for JobNum: 22  <1-21|1-21>
Storing 27.82% of integrals
Reusing in-core integrals buffer for job 22
Total number of integrals generated =        11174363
Fock build time:  0.86 s (CPU) 0.86 s (wall)
DIIS Errors:  Max 6.95E-05 RMS 4.46E-06

Current DIIS subspace size = 7
REM_GRID_RESTART_DIIS = 0

    7    -326.7096603303      4.46E-06  00000
Get PCM energy
PCM using dielectric constant = 7.5800000000
Using C-PCM dielectric factor f(eps) = (eps-1)/eps = 0.868074
 PCM solver :  Matrix Inversion
 Job number = 15, Threshold = 1.00E-11
Integral type ranges set in mkLRange.C for JobNum: 15  <1-21|22-22>
Symmetry turned off temporarily
Total number of integrals generated =         4619970
Symmetry turned back on
 Time for PCM: 0.3 s (CPU) 0.3 s (wall)
Evaluate Gaussian charge contribution to one-electron Hamiltonian from PCM charges
 Job number = 15, Threshold = 1.00E-11
Integral type ranges set in mkLRange.C for JobNum: 15  <1-21|22-22>
Symmetry turned off temporarily
Symmetry turned back on
Finding J and K together
 Job number = 22, Threshold = 1.00E-11
Integral type ranges set in mkLRange.C for JobNum: 22  <1-21|1-21>
Storing 27.82% of integrals
Reusing in-core integrals buffer for job 22
Total number of integrals generated =        11174363
Fock build time:  0.86 s (CPU) 0.86 s (wall)
DIIS Errors:  Max 2.35E-05 RMS 1.57E-06

Current DIIS subspace size = 8
REM_GRID_RESTART_DIIS = 0

    8    -326.7096603576      1.57E-06  00000
Get PCM energy
PCM using dielectric constant = 7.5800000000
Using C-PCM dielectric factor f(eps) = (eps-1)/eps = 0.868074
 PCM solver :  Matrix Inversion
 Job number = 15, Threshold = 1.00E-11
Integral type ranges set in mkLRange.C for JobNum: 15  <1-21|22-22>
Symmetry turned off temporarily
Total number of integrals generated =         4619970
Symmetry turned back on
 Time for PCM: 0.3 s (CPU) 0.3 s (wall)
Evaluate Gaussian charge contribution to one-electron Hamiltonian from PCM charges
 Job number = 15, Threshold = 1.00E-11
Integral type ranges set in mkLRange.C for JobNum: 15  <1-21|22-22>
Symmetry turned off temporarily
Symmetry turned back on
Finding J and K together
 Job number = 22, Threshold = 1.00E-11
Integral type ranges set in mkLRange.C for JobNum: 22  <1-21|1-21>
Storing 27.82% of integrals
Reusing in-core integrals buffer for job 22
Total number of integrals generated =        11174363
Fock build time:  0.86 s (CPU) 0.87 s (wall)
DIIS Errors:  Max 7.58E-06 RMS 4.89E-07

Current DIIS subspace size = 9
REM_GRID_RESTART_DIIS = 0

    9    -326.7096603612      4.89E-07  00000
Get PCM energy
PCM using dielectric constant = 7.5800000000
Using C-PCM dielectric factor f(eps) = (eps-1)/eps = 0.868074
 PCM solver :  Matrix Inversion
 Job number = 15, Threshold = 1.00E-11
Integral type ranges set in mkLRange.C for JobNum: 15  <1-21|22-22>
Symmetry turned off temporarily
Total number of integrals generated =         4619970
Symmetry turned back on
 Time for PCM: 0.4 s (CPU) 0.4 s (wall)
Evaluate Gaussian charge contribution to one-electron Hamiltonian from PCM charges
 Job number = 15, Threshold = 1.00E-11
Integral type ranges set in mkLRange.C for JobNum: 15  <1-21|22-22>
Symmetry turned off temporarily
Symmetry turned back on
Finding J and K together
 Job number = 22, Threshold = 1.00E-11
Integral type ranges set in mkLRange.C for JobNum: 22  <1-21|1-21>
Storing 27.82% of integrals
Reusing in-core integrals buffer for job 22
Total number of integrals generated =        11174363
Fock build time:  0.86 s (CPU) 0.86 s (wall)
DIIS Errors:  Max 1.06E-06 RMS 1.01E-07

Current DIIS subspace size = 10
REM_GRID_RESTART_DIIS = 0

   10    -326.7096603616      1.01E-07  00000
Get PCM energy
PCM using dielectric constant = 7.5800000000
Using C-PCM dielectric factor f(eps) = (eps-1)/eps = 0.868074
 PCM solver :  Matrix Inversion
 Job number = 15, Threshold = 1.00E-11
Integral type ranges set in mkLRange.C for JobNum: 15  <1-21|22-22>
Symmetry turned off temporarily
Total number of integrals generated =         4619970
Symmetry turned back on
 Time for PCM: 0.3 s (CPU) 0.3 s (wall)
Evaluate Gaussian charge contribution to one-electron Hamiltonian from PCM charges
 Job number = 15, Threshold = 1.00E-11
Integral type ranges set in mkLRange.C for JobNum: 15  <1-21|22-22>
Symmetry turned off temporarily
Symmetry turned back on
Finding J and K together
 Job number = 22, Threshold = 1.00E-11
Integral type ranges set in mkLRange.C for JobNum: 22  <1-21|1-21>
Storing 27.82% of integrals
Reusing in-core integrals buffer for job 22
Total number of integrals generated =        11174363
Fock build time:  0.86 s (CPU) 0.86 s (wall)
DIIS Errors:  Max 1.67E-07 RMS 1.74E-08
 Singularity in Pulay DIIS matrix

Current DIIS subspace size = 11
REM_GRID_RESTART_DIIS = 0

NextCycle: DoReset = 1
   11    -326.7096603617      1.74E-08  00000
Get PCM energy
PCM using dielectric constant = 7.5800000000
Using C-PCM dielectric factor f(eps) = (eps-1)/eps = 0.868074
 PCM solver :  Matrix Inversion
 Job number = 15, Threshold = 1.00E-11
Integral type ranges set in mkLRange.C for JobNum: 15  <1-21|22-22>
Symmetry turned off temporarily
Total number of integrals generated =         4619970
Symmetry turned back on
 Time for PCM: 0.3 s (CPU) 0.3 s (wall)
Evaluate Gaussian charge contribution to one-electron Hamiltonian from PCM charges
 Job number = 15, Threshold = 1.00E-11
Integral type ranges set in mkLRange.C for JobNum: 15  <1-21|22-22>
Symmetry turned off temporarily
Symmetry turned back on
Finding J and K together
 Job number = 22, Threshold = 1.00E-11
Integral type ranges set in mkLRange.C for JobNum: 22  <1-21|1-21>
Storing 27.82% of integrals
Reusing in-core integrals buffer for job 22
Total number of integrals generated =        11174363
Fock build time:  0.86 s (CPU) 0.86 s (wall)
DIIS Errors:  Max 7.19E-08 RMS 7.77E-09

Current DIIS subspace size = 2
REM_GRID_RESTART_DIIS = 0

Get PCM energy
PCM using dielectric constant = 7.5800000000
Using C-PCM dielectric factor f(eps) = (eps-1)/eps = 0.868074
 PCM solver :  Matrix Inversion
 Job number = 15, Threshold = 1.00E-11
Integral type ranges set in mkLRange.C for JobNum: 15  <1-21|22-22>
Symmetry turned off temporarily
Total number of integrals generated =         4619970
Symmetry turned back on
 Time for PCM: 0.3 s (CPU) 0.3 s (wall)
   12    -326.7096603617      7.77E-09  00000 Convergence criterion met
 ---------------------------------------

************** Final PCM Free Energy Summary **************
 G_electrostatic  =      -0.10883342 hartree =     -68.29400182 kcal/mol
 G_cavitation     =       0.00000000 hartree =       0.00000000 kcal/mol
 G_dispersion     =       0.00000000 hartree =       0.00000000 kcal/mol
 G_repulsion      =       0.00000000 hartree =       0.00000000 kcal/mol
 --------------------------------------------------
 Non-electrostatic Free Energy =       0.00000000 hartree =       0.00000000 kcal/mol
 Total                         =      -0.10883342 hartree =     -68.29400182 kcal/mol
 --------------------------------------------------
 SCF Energy (H0 + V/2)                       =    -326.70966036 
 Solute Internal Energy (H0)                 =    -326.60082694 
 Total Free Energy (H0 + V/2 + non-elec)     =    -326.70966036 hartree
                                             = -205013.40614414 kcal/mol
***********************************************************

 SCF time:  CPU 19.40 s  wall 19.42 s
 SCF   energy in the final basis set = -326.7096603617
 Total energy in the final basis set = -326.7096603617
Symmetry turned off temporarily
 Analysis of SCF Wavefunction
 
 --------------------------------------------------------------
                    Orbital Energies (a.u.)
 --------------------------------------------------------------
 
 Alpha MOs
 -- Occupied --
-20.462 -20.462 -20.461 -20.461  -7.566  -1.296  -1.231  -1.229
 -1.226  -0.682  -0.619  -0.611  -0.541  -0.525  -0.517  -0.463
 -0.442  -0.425  -0.400  -0.385  -0.378
 -- Virtual --
  0.264   0.316   0.346   0.356   0.537   0.545   0.568   0.633
  0.790   0.831   0.836   0.864   1.063   1.144   1.149   1.183
  1.189   1.206   1.269   1.341   1.363   1.410   1.414   1.444
  1.477   1.509   1.549   1.596   1.655   1.682   1.740   1.858
  1.880   1.975   1.991   2.059   2.067   2.121   2.135   2.186
  2.192   2.245   2.255   2.273   2.635   2.658   2.731   2.753
  2.769   2.885   2.923   2.986   3.094   3.146   3.153   3.246
  3.269   4.079   4.181   4.354   4.370   4.549
 --------------------------------------------------------------
 
          Ground-State Mulliken Net Atomic Charges

     Atom                 Charge (a.u.)
  ----------------------------------------
      1 B                     0.885831
      2 O                    -0.893179
      3 O                    -0.872629
      4 O                    -0.872685
      5 H                     0.412714
      6 H                     0.410212
      7 H                     0.412713
      8 O                    -0.893091
      9 H                     0.410114
  ----------------------------------------
  Sum of atomic charges =    -1.000000

 -----------------------------------------------------------------
                    Cartesian Multipole Moments
 -----------------------------------------------------------------
    Charge (ESU x 10^10)
                -4.8032
    Dipole Moment (Debye)
         X       7.0199      Y      -9.2623      Z      -0.3440
       Tot      11.6270
    Quadrupole Moments (Debye-Ang)
        XX     -41.1424     XY      13.4211     YY     -45.5661
        XZ       0.3115     YZ       4.5837     ZZ     -37.2779
    Octopole Moments (Debye-Ang^2)
       XXX      73.2999    XXY     -80.6423    XYY      50.3525
       YYY    -196.4227    XXZ      -2.9775    XYZ       1.4901
       YYZ      17.6337    XZZ      15.2589    YZZ     -72.5753
       ZZZ      -7.9116
    Hexadecapole Moments (Debye-Ang^3)
      XXXX    -231.2829   XXXY     143.6578   XXYY    -220.5969
      XYYY     193.3941   YYYY    -819.1917   XXXZ       6.1715
      XXYZ     -15.0200   XYYZ       5.4165   YYYZ      58.1116
      XXZZ     -63.2412   XYZZ      29.5475   YYZZ    -181.6940
      XZZZ       2.8224   YZZZ      -3.2010   ZZZZ    -153.3219
 -----------------------------------------------------------------
 Calculating analytic gradient of the SCF energy
 Job number = 111, Threshold = 1.00E-11
Integral type ranges set in mkLRange.C for JobNum: 11  <1-21|23-23>
Total number of integrals generated =           32535
Finding J and K together
 ML is being used
 Job number = 122, Threshold = 1.00E-11
Integral type ranges set in mkLRange.C for JobNum: 22  <1-21|1-21>
Total number of integrals generated =         6179389
 Gradient of Coulomb and Exchange Energy
            1           2           3           4           5           6
    1  -1.3484004  -6.1961114  12.1754464  11.5807944  -1.7935652  -2.8570911
    2  -0.0529632  -4.9212210  -7.7988346   8.6654975  -2.8446495  -2.6497787
    3   0.0051796  12.6421966  -5.2722211   5.2576906  -2.4613778  -1.4268970
            7           8           9
    1  -1.9916807  -6.5373452  -3.0320466
    2   2.6995916   4.4537950   2.4485628
    3   2.4722809 -12.6419339   1.4250821
 Gradient of SCF Energy
            1           2           3           4           5           6
    1  -0.0007914  -0.0006975   0.0289803   0.0287253  -0.0120350  -0.0150448
    2  -0.0000167   0.0097858  -0.0024796   0.0046125  -0.0150812  -0.0140135
    3   0.0000084   0.0257742   0.0035193  -0.0035619  -0.0166036  -0.0095613
            7           8           9
    1  -0.0130827  -0.0000653  -0.0159888
    2   0.0141129  -0.0099242   0.0130040
    3   0.0166696  -0.0258131   0.0095684
 Max gradient component =       2.898E-02
 RMS gradient           =       1.436E-02
Get PCM gradient
PCM using dielectric constant = 7.5800000
Using C-PCM dielectric factor f(eps) = (eps-1)/eps = 0.868074
 PCM solver :  Matrix Inversion
 Computing fast CPCM-SWIG gradient.
 Job number = 115, Threshold = 1.00E-11
Integral type ranges set in mkLRange.C for JobNum: 15  <1-21|22-22>
Symmetry turned off temporarily
Total number of integrals generated =         4619970
Symmetry turned back on
Updating gradient with PCM contributions...
 -- total gradient after adding PCM contribution --
---------------------------------------------------
  Atom         X              Y              Z     
---------------------------------------------------
   1       0.008120       0.000295      -0.000008
   2       0.000099       0.001591      -0.002317
   3      -0.003639       0.001675       0.001452
   4      -0.003501      -0.001960      -0.001428
   5       0.001099      -0.000984      -0.001680
   6      -0.001685      -0.000321       0.001106
   7       0.001035       0.001055       0.001671
   8       0.000182      -0.001588       0.002297
   9      -0.001709       0.000237      -0.001092
---------------------------------------------------
Number of fixed atoms: 0
 Time req'd to calc PCM grad: 3.4 s (CPU) 3.4 s (wall)
 Time for PCM: 3.4 s (CPU) 3.4 s (wall)
PCM gradient status: 0
 Gradient time:  CPU 12.12 s  wall 12.12 s
 ------------------------------------------------------------------------------
                     drvman        : Timing summary (seconds)
 ------------------------------------------------------------------------------
     job step          cpu (% of tot)      sys (% of tot)     wall (% of tot)
 ------------------------------------------------------------------------------
 ------------------------------------------------------------------------------
   Grand Totals     0.1212E+02          0.1000E-05          0.1212E+02
 ------------------------------------------------------------------------------
 Geometry Optimization Parameters
   NAtoms,    NIC,     NZ,  NCons,   NDum,   NFix, NCnnct, MaxDiis
        9      48       0       0       0       0       0       0

 Cartesian Hessian Update
 Hessian Updated using BFGS Update


** GEOMETRY OPTIMIZATION IN DELOCALIZED INTERNAL COORDINATES **
   Searching for a Minimum

   Optimization Cycle:   2

                       Coordinates (Angstroms)
     ATOM                X               Y               Z
      1  B        -0.5497328550    1.9614294276    0.0704791566
      2  O         0.2823190263    2.6351839214   -0.9525383429
      3  O        -1.4630765084    2.8796697039    0.7575734494
      4  O        -1.3946203141    0.9796152050   -0.6162946144
      5  H        -0.9327487860    3.4674280646    1.2763220939
      6  H         0.8880550521    3.2037825247   -0.4979768940
      7  H        -0.8237774274    0.4335690422   -1.1376262348
      8  O         0.3282711634    1.3489979576    1.0936472893
      9  H         0.9714106490    0.8228141529    0.6394340968
   Point Group: c1    Number of degrees of freedom:    21


   Energy is   -326.709660362

 GETINT wrote B to file, NVib is           21
 Hessian Updated using BFGS Update

 19 Hessian modes will be used to form the next step
  Hessian Eigenvalues:
     0.014252    0.014283    0.014803    0.014828    0.106104    0.109518
     0.111406    0.154494    0.160030    0.199787    0.203015    0.345264
     0.345344    0.347661    0.350094    0.491985    0.492009    0.492056
     0.531729

 Minimum Search - Taking Simple RFO Step
 Searching for Lamda that Minimizes Along All modes
 Value Taken    Lamda =  -0.00059666
 Step Taken.  Stepsize is  0.117395

                             Maximum     Tolerance    Cnvgd?
         Gradient           0.005033      0.000300      NO
         Displacement       0.081460      0.001200      NO
         Energy change     -0.009599      0.000001      NO


 New Cartesian Coordinates Obtained by Inverse Iteration

 Displacement from previous Coordinates is:  0.155575
 ----------------------------------------------------------------
             Standard Nuclear Orientation (Angstroms)
    I     Atom           X                Y                Z
 ----------------------------------------------------------------
    1      B      -0.5583583799     1.9611455630     0.0705105491
    2      O       0.2835369384     2.6213524881    -0.9521004968
    3      O      -1.4663914654     2.8783591525     0.7591743791
    4      O      -1.3979208411     0.9807804842    -0.6179862295
    5      H      -0.9527658268     3.4588116487     1.3020127454
    6      H       0.9162131236     3.1724127276    -0.5136922054
    7      H      -0.8441694798     0.4408761191    -1.1632236043
    8      O       0.3286928703     1.3629676084     1.0932170966
    9      H       0.9972630607     0.8557842086     0.6551077659
 ----------------------------------------------------------------
 Nuclear Repulsion Energy =   184.8422457217 hartrees
 There are       21 alpha and       21 beta electrons
 JobOver = FALSE
Get surface
PCM using dielectric constant = 7.5800000
Using C-PCM dielectric factor f(eps) = (eps-1)/eps = 0.868074
 PCM solver :  Matrix Inversion
Discretize the solute cavity surface with Lebedev spheres
	Using 302 Lebedev grid points for each H atom
	Using 302 Lebedev grid points for other atoms
	Atomic van der Waals radii will be scaled by 1.20
 Serial switch compute.
 Remove points where switching function is < 1.0e-08
 Keep 1274 surface tesserae and discard 1444 interior tesserae
 Molecular Surface Area = 107.542 Angst**2
 Writing dummy charges to EXTERNAL_POINT_CHARGES_TWO) ...
Time req'd to discretize surface: 0.0 s (CPU) 0.0 s (wall)
 Time for PCM: 0.0 s (CPU) 0.0 s (wall)
 Applying Cartesian multipole field
    Component          Value
    ---------          -----
     (2,0,0)        1.00000E-11
     (0,2,0)        2.00000E-11
     (0,0,2)       -3.00000E-10
 Nucleus-field energy     =    -0.0000000156 hartrees
 Requested basis set is 6-31G(d)
 There are 28 shells and 83 basis functions
 Job number = 2, Threshold = 1.00E-11
Integral type ranges set in mkLRange.C for JobNum: 2  <1-22|1-22>
Symmetry turned off temporarily
Total number of integrals generated =           68099
Symmetry turned back on
 A cutoff of  1.0D-11 yielded    400 shell pairs
 There are      3615 function pairs
 Job number = 11, Threshold = 1.00E-11
Integral type ranges set in mkLRange.C for JobNum: 11  <1-21|23-23>
Total number of integrals generated =           32535
 Smallest overlap matrix eigenvalue = 3.85E-03
 Multipole matrices computed through 2nd order
 Guess MOs from SCF MO coefficient file
Reading MOs from coefficient file
Reading MOs from coefficient file
 A restricted Hartree-Fock SCF calculation will be
 performed using Pulay DIIS extrapolation
 Polarizable Continuum solvation model will be applied
 SCF converges when DIIS error is below 1.0E-08
Geometry optimization detected.  Setting ReadMinima to 0
Setting SaveMinima to 0
Get PCM energy
PCM using dielectric constant = 7.5800000000
Using C-PCM dielectric factor f(eps) = (eps-1)/eps = 0.868074
 PCM solver :  Matrix Inversion
 Time for PCM: 0.0 s (CPU) 0.0 s (wall)
Finding J and K together
 Job number = 22, Threshold = 1.00E-11
Integral type ranges set in mkLRange.C for JobNum: 22  <1-21|1-21>
Storing 27.82% of integrals
Total number of integrals generated =         6586968
Fock build time:  1.34 s (CPU) 1.34 s (wall)
DIIS Errors:  Max 1.66E-02 RMS 1.70E-03

Current DIIS subspace size = 1
REM_GRID_RESTART_DIIS = 0

 ---------------------------------------
  Cycle       Energy         DIIS Error
 ---------------------------------------
    1    -326.6050665883      1.70E-03  00000
Get PCM energy
PCM using dielectric constant = 7.5800000000
Using C-PCM dielectric factor f(eps) = (eps-1)/eps = 0.868074
 PCM solver :  Matrix Inversion
 Job number = 15, Threshold = 1.00E-11
Integral type ranges set in mkLRange.C for JobNum: 15  <1-21|22-22>
Symmetry turned off temporarily
Total number of integrals generated =         4605510
Symmetry turned back on
 BuildS Time: 0.03 s (CPU) 0.03 s (wall)
 C written to file 854
 Attempting to invert C...
 Time req'd to invert C: 0.46 s (CPU) 0.46 s (wall)
 C^-1 written to file 828
 Time for PCM: 0.8 s (CPU) 0.8 s (wall)
Evaluate Gaussian charge contribution to one-electron Hamiltonian from PCM charges
 Job number = 15, Threshold = 1.00E-11
Integral type ranges set in mkLRange.C for JobNum: 15  <1-21|22-22>
Symmetry turned off temporarily
Symmetry turned back on
Finding J and K together
 Job number = 22, Threshold = 1.00E-11
Integral type ranges set in mkLRange.C for JobNum: 22  <1-21|1-21>
Storing 27.82% of integrals
Reusing in-core integrals buffer for job 22
Total number of integrals generated =        11159943
Fock build time:  0.86 s (CPU) 0.87 s (wall)
DIIS Errors:  Max 1.18E-02 RMS 1.51E-03

Current DIIS subspace size = 2
REM_GRID_RESTART_DIIS = 0

    2    -326.7072921330      1.51E-03  00000
Get PCM energy
PCM using dielectric constant = 7.5800000000
Using C-PCM dielectric factor f(eps) = (eps-1)/eps = 0.868074
 PCM solver :  Matrix Inversion
 Job number = 15, Threshold = 1.00E-11
Integral type ranges set in mkLRange.C for JobNum: 15  <1-21|22-22>
Symmetry turned off temporarily
Total number of integrals generated =         4605510
Symmetry turned back on
 Time for PCM: 0.3 s (CPU) 0.3 s (wall)
Evaluate Gaussian charge contribution to one-electron Hamiltonian from PCM charges
 Job number = 15, Threshold = 1.00E-11
Integral type ranges set in mkLRange.C for JobNum: 15  <1-21|22-22>
Symmetry turned off temporarily
Symmetry turned back on
Finding J and K together
 Job number = 22, Threshold = 1.00E-11
Integral type ranges set in mkLRange.C for JobNum: 22  <1-21|1-21>
Storing 27.82% of integrals
Reusing in-core integrals buffer for job 22
Total number of integrals generated =        11159943
Fock build time:  0.86 s (CPU) 0.86 s (wall)
DIIS Errors:  Max 4.74E-03 RMS 6.59E-04

Current DIIS subspace size = 3
REM_GRID_RESTART_DIIS = 0

    3    -326.7093001244      6.59E-04  00000
Get PCM energy
PCM using dielectric constant = 7.5800000000
Using C-PCM dielectric factor f(eps) = (eps-1)/eps = 0.868074
 PCM solver :  Matrix Inversion
 Job number = 15, Threshold = 1.00E-11
Integral type ranges set in mkLRange.C for JobNum: 15  <1-21|22-22>
Symmetry turned off temporarily
Total number of integrals generated =         4605510
Symmetry turned back on
 Time for PCM: 0.3 s (CPU) 0.3 s (wall)
Evaluate Gaussian charge contribution to one-electron Hamiltonian from PCM charges
 Job number = 15, Threshold = 1.00E-11
Integral type ranges set in mkLRange.C for JobNum: 15  <1-21|22-22>
Symmetry turned off temporarily
Symmetry turned back on
Finding J and K together
 Job number = 22, Threshold = 1.00E-11
Integral type ranges set in mkLRange.C for JobNum: 22  <1-21|1-21>
Storing 27.82% of integrals
Reusing in-core integrals buffer for job 22
Total number of integrals generated =        11159943
Fock build time:  0.86 s (CPU) 0.86 s (wall)
DIIS Errors:  Max 3.32E-03 RMS 3.69E-04

Current DIIS subspace size = 4
REM_GRID_RESTART_DIIS = 0

    4    -326.7097769950      3.69E-04  00000
Get PCM energy
PCM using dielectric constant = 7.5800000000
Using C-PCM dielectric factor f(eps) = (eps-1)/eps = 0.868074
 PCM solver :  Matrix Inversion
 Job number = 15, Threshold = 1.00E-11
Integral type ranges set in mkLRange.C for JobNum: 15  <1-21|22-22>
Symmetry turned off temporarily
Total number of integrals generated =         4605510
Symmetry turned back on
 Time for PCM: 0.3 s (CPU) 0.3 s (wall)
Evaluate Gaussian charge contribution to one-electron Hamiltonian from PCM charges
 Job number = 15, Threshold = 1.00E-11
Integral type ranges set in mkLRange.C for JobNum: 15  <1-21|22-22>
Symmetry turned off temporarily
Symmetry turned back on
Finding J and K together
 Job number = 22, Threshold = 1.00E-11
Integral type ranges set in mkLRange.C for JobNum: 22  <1-21|1-21>
Storing 27.82% of integrals
Reusing in-core integrals buffer for job 22
Total number of integrals generated =        11159943
Fock build time:  0.86 s (CPU) 0.86 s (wall)
DIIS Errors:  Max 9.47E-04 RMS 1.02E-04

Current DIIS subspace size = 5
REM_GRID_RESTART_DIIS = 0

    5    -326.7100019862      1.02E-04  00000
Get PCM energy
PCM using dielectric constant = 7.5800000000
Using C-PCM dielectric factor f(eps) = (eps-1)/eps = 0.868074
 PCM solver :  Matrix Inversion
 Job number = 15, Threshold = 1.00E-11
Integral type ranges set in mkLRange.C for JobNum: 15  <1-21|22-22>
Symmetry turned off temporarily
Total number of integrals generated =         4605510
Symmetry turned back on
 Time for PCM: 0.3 s (CPU) 0.3 s (wall)
Evaluate Gaussian charge contribution to one-electron Hamiltonian from PCM charges
 Job number = 15, Threshold = 1.00E-11
Integral type ranges set in mkLRange.C for JobNum: 15  <1-21|22-22>
Symmetry turned off temporarily
Symmetry turned back on
Finding J and K together
 Job number = 22, Threshold = 1.00E-11
Integral type ranges set in mkLRange.C for JobNum: 22  <1-21|1-21>
Storing 27.82% of integrals
Reusing in-core integrals buffer for job 22
Total number of integrals generated =        11159943
Fock build time:  0.86 s (CPU) 0.86 s (wall)
DIIS Errors:  Max 1.73E-04 RMS 1.75E-05

Current DIIS subspace size = 6
REM_GRID_RESTART_DIIS = 0

    6    -326.7100233391      1.75E-05  00000
Get PCM energy
PCM using dielectric constant = 7.5800000000
Using C-PCM dielectric factor f(eps) = (eps-1)/eps = 0.868074
 PCM solver :  Matrix Inversion
 Job number = 15, Threshold = 1.00E-11
Integral type ranges set in mkLRange.C for JobNum: 15  <1-21|22-22>
Symmetry turned off temporarily
Total number of integrals generated =         4605510
Symmetry turned back on
 Time for PCM: 0.3 s (CPU) 0.3 s (wall)
Evaluate Gaussian charge contribution to one-electron Hamiltonian from PCM charges
 Job number = 15, Threshold = 1.00E-11
Integral type ranges set in mkLRange.C for JobNum: 15  <1-21|22-22>
Symmetry turned off temporarily
Symmetry turned back on
Finding J and K together
 Job number = 22, Threshold = 1.00E-11
Integral type ranges set in mkLRange.C for JobNum: 22  <1-21|1-21>
Storing 27.82% of integrals
Reusing in-core integrals buffer for job 22
Total number of integrals generated =        11159943
Fock build time:  0.86 s (CPU) 0.86 s (wall)
DIIS Errors:  Max 6.40E-05 RMS 5.11E-06

Current DIIS subspace size = 7
REM_GRID_RESTART_DIIS = 0

    7    -326.7100239632      5.11E-06  00000
Get PCM energy
PCM using dielectric constant = 7.5800000000
Using C-PCM dielectric factor f(eps) = (eps-1)/eps = 0.868074
 PCM solver :  Matrix Inversion
 Job number = 15, Threshold = 1.00E-11
Integral type ranges set in mkLRange.C for JobNum: 15  <1-21|22-22>
Symmetry turned off temporarily
Total number of integrals generated =         4605510
Symmetry turned back on
 Time for PCM: 0.3 s (CPU) 0.3 s (wall)
Evaluate Gaussian charge contribution to one-electron Hamiltonian from PCM charges
 Job number = 15, Threshold = 1.00E-11
Integral type ranges set in mkLRange.C for JobNum: 15  <1-21|22-22>
Symmetry turned off temporarily
Symmetry turned back on
Finding J and K together
 Job number = 22, Threshold = 1.00E-11
Integral type ranges set in mkLRange.C for JobNum: 22  <1-21|1-21>
Storing 27.82% of integrals
Reusing in-core integrals buffer for job 22
Total number of integrals generated =        11159943
Fock build time:  0.86 s (CPU) 0.86 s (wall)
DIIS Errors:  Max 2.32E-05 RMS 1.82E-06

Current DIIS subspace size = 8
REM_GRID_RESTART_DIIS = 0

    8    -326.7100239955      1.82E-06  00000
Get PCM energy
PCM using dielectric constant = 7.5800000000
Using C-PCM dielectric factor f(eps) = (eps-1)/eps = 0.868074
 PCM solver :  Matrix Inversion
 Job number = 15, Threshold = 1.00E-11
Integral type ranges set in mkLRange.C for JobNum: 15  <1-21|22-22>
Symmetry turned off temporarily
Total number of integrals generated =         4605510
Symmetry turned back on
 Time for PCM: 0.3 s (CPU) 0.3 s (wall)
Evaluate Gaussian charge contribution to one-electron Hamiltonian from PCM charges
 Job number = 15, Threshold = 1.00E-11
Integral type ranges set in mkLRange.C for JobNum: 15  <1-21|22-22>
Symmetry turned off temporarily
Symmetry turned back on
Finding J and K together
 Job number = 22, Threshold = 1.00E-11
Integral type ranges set in mkLRange.C for JobNum: 22  <1-21|1-21>
Storing 27.82% of integrals
Reusing in-core integrals buffer for job 22
Total number of integrals generated =        11159943
Fock build time:  0.86 s (CPU) 0.86 s (wall)
DIIS Errors:  Max 6.33E-06 RMS 6.24E-07

Current DIIS subspace size = 9
REM_GRID_RESTART_DIIS = 0

    9    -326.7100240004      6.24E-07  00000
Get PCM energy
PCM using dielectric constant = 7.5800000000
Using C-PCM dielectric factor f(eps) = (eps-1)/eps = 0.868074
 PCM solver :  Matrix Inversion
 Job number = 15, Threshold = 1.00E-11
Integral type ranges set in mkLRange.C for JobNum: 15  <1-21|22-22>
Symmetry turned off temporarily
Total number of integrals generated =         4605510
Symmetry turned back on
 Time for PCM: 0.3 s (CPU) 0.3 s (wall)
Evaluate Gaussian charge contribution to one-electron Hamiltonian from PCM charges
 Job number = 15, Threshold = 1.00E-11
Integral type ranges set in mkLRange.C for JobNum: 15  <1-21|22-22>
Symmetry turned off temporarily
Symmetry turned back on
Finding J and K together
 Job number = 22, Threshold = 1.00E-11
Integral type ranges set in mkLRange.C for JobNum: 22  <1-21|1-21>
Storing 27.82% of integrals
Reusing in-core integrals buffer for job 22
Total number of integrals generated =        11159943
Fock build time:  0.86 s (CPU) 0.86 s (wall)
DIIS Errors:  Max 1.74E-06 RMS 1.65E-07

Current DIIS subspace size = 10
REM_GRID_RESTART_DIIS = 0

   10    -326.7100240011      1.65E-07  00000
Get PCM energy
PCM using dielectric constant = 7.5800000000
Using C-PCM dielectric factor f(eps) = (eps-1)/eps = 0.868074
 PCM solver :  Matrix Inversion
 Job number = 15, Threshold = 1.00E-11
Integral type ranges set in mkLRange.C for JobNum: 15  <1-21|22-22>
Symmetry turned off temporarily
Total number of integrals generated =         4605510
Symmetry turned back on
 Time for PCM: 0.3 s (CPU) 0.3 s (wall)
Evaluate Gaussian charge contribution to one-electron Hamiltonian from PCM charges
 Job number = 15, Threshold = 1.00E-11
Integral type ranges set in mkLRange.C for JobNum: 15  <1-21|22-22>
Symmetry turned off temporarily
Symmetry turned back on
Finding J and K together
 Job number = 22, Threshold = 1.00E-11
Integral type ranges set in mkLRange.C for JobNum: 22  <1-21|1-21>
Storing 27.82% of integrals
Reusing in-core integrals buffer for job 22
Total number of integrals generated =        11159943
Fock build time:  0.86 s (CPU) 0.86 s (wall)
DIIS Errors:  Max 3.19E-07 RMS 2.96E-08
 Singularity in Pulay DIIS matrix

Current DIIS subspace size = 11
REM_GRID_RESTART_DIIS = 0

NextCycle: DoReset = 1
   11    -326.7100240012      2.96E-08  00000
Get PCM energy
PCM using dielectric constant = 7.5800000000
Using C-PCM dielectric factor f(eps) = (eps-1)/eps = 0.868074
 PCM solver :  Matrix Inversion
 Job number = 15, Threshold = 1.00E-11
Integral type ranges set in mkLRange.C for JobNum: 15  <1-21|22-22>
Symmetry turned off temporarily
Total number of integrals generated =         4605510
Symmetry turned back on
 Time for PCM: 0.3 s (CPU) 0.3 s (wall)
Evaluate Gaussian charge contribution to one-electron Hamiltonian from PCM charges
 Job number = 15, Threshold = 1.00E-11
Integral type ranges set in mkLRange.C for JobNum: 15  <1-21|22-22>
Symmetry turned off temporarily
Symmetry turned back on
Finding J and K together
 Job number = 22, Threshold = 1.00E-11
Integral type ranges set in mkLRange.C for JobNum: 22  <1-21|1-21>
Storing 27.82% of integrals
Reusing in-core integrals buffer for job 22
Total number of integrals generated =        11159943
Fock build time:  0.86 s (CPU) 0.86 s (wall)
DIIS Errors:  Max 1.63E-07 RMS 1.30E-08

Current DIIS subspace size = 2
REM_GRID_RESTART_DIIS = 0

   12    -326.7100240012      1.30E-08  00000
Get PCM energy
PCM using dielectric constant = 7.5800000000
Using C-PCM dielectric factor f(eps) = (eps-1)/eps = 0.868074
 PCM solver :  Matrix Inversion
 Job number = 15, Threshold = 1.00E-11
Integral type ranges set in mkLRange.C for JobNum: 15  <1-21|22-22>
Symmetry turned off temporarily
Total number of integrals generated =         4605510
Symmetry turned back on
 Time for PCM: 0.3 s (CPU) 0.3 s (wall)
Evaluate Gaussian charge contribution to one-electron Hamiltonian from PCM charges
 Job number = 15, Threshold = 1.00E-11
Integral type ranges set in mkLRange.C for JobNum: 15  <1-21|22-22>
Symmetry turned off temporarily
Symmetry turned back on
Finding J and K together
 Job number = 22, Threshold = 1.00E-11
Integral type ranges set in mkLRange.C for JobNum: 22  <1-21|1-21>
Storing 27.82% of integrals
Reusing in-core integrals buffer for job 22
Total number of integrals generated =        11159943
Fock build time:  0.86 s (CPU) 0.86 s (wall)
DIIS Errors:  Max 7.07E-08 RMS 5.60E-09

Current DIIS subspace size = 3
REM_GRID_RESTART_DIIS = 0

Get PCM energy
PCM using dielectric constant = 7.5800000000
Using C-PCM dielectric factor f(eps) = (eps-1)/eps = 0.868074
 PCM solver :  Matrix Inversion
 Job number = 15, Threshold = 1.00E-11
Integral type ranges set in mkLRange.C for JobNum: 15  <1-21|22-22>
Symmetry turned off temporarily
Total number of integrals generated =         4605510
Symmetry turned back on
 Time for PCM: 0.3 s (CPU) 0.3 s (wall)
   13    -326.7100240012      5.60E-09  00000 Convergence criterion met
 ---------------------------------------

************** Final PCM Free Energy Summary **************
 G_electrostatic  =      -0.10868867 hartree =     -68.20317182 kcal/mol
 G_cavitation     =       0.00000000 hartree =       0.00000000 kcal/mol
 G_dispersion     =       0.00000000 hartree =       0.00000000 kcal/mol
 G_repulsion      =       0.00000000 hartree =       0.00000000 kcal/mol
 --------------------------------------------------
 Non-electrostatic Free Energy =       0.00000000 hartree =       0.00000000 kcal/mol
 Total                         =      -0.10868867 hartree =     -68.20317182 kcal/mol
 --------------------------------------------------
 SCF Energy (H0 + V/2)                       =    -326.71002400 
 Solute Internal Energy (H0)                 =    -326.60133533 
 Total Free Energy (H0 + V/2 + non-elec)     =    -326.71002400 hartree
                                             = -205013.63433137 kcal/mol
***********************************************************

 SCF time:  CPU 20.91 s  wall 20.92 s
 SCF   energy in the final basis set = -326.7100240012
 Total energy in the final basis set = -326.7100240012
Symmetry turned off temporarily
 Analysis of SCF Wavefunction
 
 --------------------------------------------------------------
                    Orbital Energies (a.u.)
 --------------------------------------------------------------
 
 Alpha MOs
 -- Occupied --
-20.461 -20.461 -20.460 -20.460  -7.565  -1.295  -1.231  -1.229
 -1.223  -0.684  -0.619  -0.612  -0.544  -0.523  -0.514  -0.460
 -0.441  -0.426  -0.398  -0.384  -0.377
 -- Virtual --
  0.266   0.319   0.343   0.354   0.535   0.543   0.570   0.635
  0.789   0.834   0.837   0.865   1.064   1.145   1.151   1.185
  1.190   1.209   1.273   1.343   1.364   1.408   1.412   1.442
  1.478   1.513   1.556   1.601   1.651   1.686   1.745   1.852
  1.872   1.978   1.989   2.062   2.066   2.121   2.135   2.188
  2.190   2.248   2.264   2.277   2.630   2.663   2.735   2.756
  2.759   2.894   2.923   2.991   3.105   3.148   3.164   3.241
  3.270   4.078   4.183   4.354   4.371   4.550
 --------------------------------------------------------------
 
          Ground-State Mulliken Net Atomic Charges

     Atom                 Charge (a.u.)
  ----------------------------------------
      1 B                     0.886413
      2 O                    -0.895222
      3 O                    -0.871509
      4 O                    -0.871551
      5 H                     0.414094
      6 H                     0.409479
      7 H                     0.414090
      8 O                    -0.895176
      9 H                     0.409381
  ----------------------------------------
  Sum of atomic charges =    -1.000000

 -----------------------------------------------------------------
                    Cartesian Multipole Moments
 -----------------------------------------------------------------
    Charge (ESU x 10^10)
                -4.8032
    Dipole Moment (Debye)
         X       7.0240      Y      -9.2629      Z      -0.3433
       Tot      11.6300
    Quadrupole Moments (Debye-Ang)
        XX     -40.8505     XY      13.4465     YY     -45.7820
        XZ       0.3088     YZ       4.6214     ZZ     -36.9832
    Octopole Moments (Debye-Ang^2)
       XXX      73.9064    XXY     -80.0290    XYY      50.2313
       YYY    -197.7250    XXZ      -2.9300    XYZ       1.1064
       YYZ      17.7416    XZZ      15.0256    YZZ     -71.9947
       ZZZ      -7.8477
    Hexadecapole Moments (Debye-Ang^3)
      XXXX    -232.7442   XXXY     144.7721   XXYY    -218.9151
      XYYY     192.4190   YYYY    -823.5250   XXXZ       6.2147
      XXYZ     -14.9713   XYYZ       3.8961   YYYZ      58.0115
      XXZZ     -62.9768   XYZZ      29.0076   YYZZ    -179.6025
      XZZZ       2.7665   YZZZ      -3.0589   ZZZZ    -153.0671
 -----------------------------------------------------------------
 Calculating analytic gradient of the SCF energy
 Job number = 111, Threshold = 1.00E-11
Integral type ranges set in mkLRange.C for JobNum: 11  <1-21|23-23>
Total number of integrals generated =           32535
Finding J and K together
 ML is being used
[...]
 Job number = 15, Threshold = 1.00E-11
Integral type ranges set in mkLRange.C for JobNum: 15  <1-21|22-22>
Symmetry turned off temporarily
Total number of integrals generated =         4562130
Symmetry turned back on
 Time for PCM: 0.3 s (CPU) 0.3 s (wall)
Evaluate Gaussian charge contribution to one-electron Hamiltonian from PCM charges
 Job number = 15, Threshold = 1.00E-11
Integral type ranges set in mkLRange.C for JobNum: 15  <1-21|22-22>
Symmetry turned off temporarily
Symmetry turned back on
Finding J and K together
 Job number = 22, Threshold = 1.00E-11
Integral type ranges set in mkLRange.C for JobNum: 22  <1-21|1-21>
Storing 27.82% of integrals
Reusing in-core integrals buffer for job 22
Total number of integrals generated =        11111755
Fock build time:  0.86 s (CPU) 0.86 s (wall)
DIIS Errors:  Max 1.32E-07 RMS 1.10E-08

Current DIIS subspace size = 2
REM_GRID_RESTART_DIIS = 0

   12    -326.7105462336      1.10E-08  00000
Get PCM energy
PCM using dielectric constant = 7.5800000000
Using C-PCM dielectric factor f(eps) = (eps-1)/eps = 0.868074
 PCM solver :  Matrix Inversion
 Job number = 15, Threshold = 1.00E-11
Integral type ranges set in mkLRange.C for JobNum: 15  <1-21|22-22>
Symmetry turned off temporarily
Total number of integrals generated =         4562130
Symmetry turned back on
 Time for PCM: 0.3 s (CPU) 0.3 s (wall)
Evaluate Gaussian charge contribution to one-electron Hamiltonian from PCM charges
 Job number = 15, Threshold = 1.00E-11
Integral type ranges set in mkLRange.C for JobNum: 15  <1-21|22-22>
Symmetry turned off temporarily
Symmetry turned back on
Finding J and K together
 Job number = 22, Threshold = 1.00E-11
Integral type ranges set in mkLRange.C for JobNum: 22  <1-21|1-21>
Storing 27.82% of integrals
Reusing in-core integrals buffer for job 22
Total number of integrals generated =        11111755
Fock build time:  0.86 s (CPU) 0.86 s (wall)
DIIS Errors:  Max 6.78E-08 RMS 4.15E-09

Current DIIS subspace size = 3
REM_GRID_RESTART_DIIS = 0

Get PCM energy
PCM using dielectric constant = 7.5800000000
Using C-PCM dielectric factor f(eps) = (eps-1)/eps = 0.868074
 PCM solver :  Matrix Inversion
 Job number = 15, Threshold = 1.00E-11
Integral type ranges set in mkLRange.C for JobNum: 15  <1-21|22-22>
Symmetry turned off temporarily
Total number of integrals generated =         4562130
Symmetry turned back on
 Time for PCM: 0.3 s (CPU) 0.3 s (wall)
   13    -326.7105462336      4.15E-09  00000 Convergence criterion met
 ---------------------------------------

************** Final PCM Free Energy Summary **************
 G_electrostatic  =      -0.10710361 hartree =     -67.20852830 kcal/mol
 G_cavitation     =       0.00000000 hartree =       0.00000000 kcal/mol
 G_dispersion     =       0.00000000 hartree =       0.00000000 kcal/mol
 G_repulsion      =       0.00000000 hartree =       0.00000000 kcal/mol
 --------------------------------------------------
 Non-electrostatic Free Energy =       0.00000000 hartree =       0.00000000 kcal/mol
 Total                         =      -0.10710361 hartree =     -67.20852830 kcal/mol
 --------------------------------------------------
 SCF Energy (H0 + V/2)                       =    -326.71054623 
 Solute Internal Energy (H0)                 =    -326.60344263 
 Total Free Energy (H0 + V/2 + non-elec)     =    -326.71054623 hartree
                                             = -205013.96203718 kcal/mol
***********************************************************

 SCF time:  CPU 20.80 s  wall 20.82 s
 SCF   energy in the final basis set = -326.7105462336
 Total energy in the final basis set = -326.7105462336
Symmetry turned off temporarily
 Analysis of SCF Wavefunction
 
 --------------------------------------------------------------
                    Orbital Energies (a.u.)
 --------------------------------------------------------------
 
 Alpha MOs
 -- Occupied --
-20.462 -20.462 -20.460 -20.460  -7.565  -1.296  -1.232  -1.229
 -1.221  -0.682  -0.620  -0.612  -0.553  -0.527  -0.502  -0.451
 -0.442  -0.433  -0.397  -0.386  -0.378
 -- Virtual --
  0.269   0.329   0.338   0.348   0.535   0.537   0.565   0.630
  0.784   0.836   0.839   0.865   1.080   1.144   1.148   1.182
  1.187   1.220   1.283   1.346   1.365   1.407   1.411   1.431
  1.480   1.524   1.545   1.592   1.605   1.659   1.759   1.838
  1.849   1.986   1.997   2.063   2.075   2.127   2.133   2.185
  2.202   2.255   2.268   2.278   2.617   2.639   2.738   2.758
  2.770   2.924   2.938   2.986   3.085   3.139   3.159   3.214
  3.280   4.081   4.187   4.316   4.369   4.550
 --------------------------------------------------------------
 
          Ground-State Mulliken Net Atomic Charges

     Atom                 Charge (a.u.)
  ----------------------------------------
      1 B                     0.896853
      2 O                    -0.902227
      3 O                    -0.871945
      4 O                    -0.871945
      5 H                     0.415057
      6 H                     0.410706
      7 H                     0.415009
      8 O                    -0.902168
      9 H                     0.410659
  ----------------------------------------
  Sum of atomic charges =    -1.000000

 -----------------------------------------------------------------
                    Cartesian Multipole Moments
 -----------------------------------------------------------------
    Charge (ESU x 10^10)
                -4.8032
    Dipole Moment (Debye)
         X       7.0881      Y      -9.2616      Z      -0.3336
       Tot      11.6675
    Quadrupole Moments (Debye-Ang)
        XX     -40.0520     XY      13.6946     YY     -48.1199
        XZ       0.3176     YZ       4.4114     ZZ     -35.6211
    Octopole Moments (Debye-Ang^2)
       XXX      74.7727    XXY     -78.5028    XYY      52.0517
       YYY    -211.5524    XXZ      -2.7640    XYZ       0.1731
       YYZ      16.6231    XZZ      12.9816    YZZ     -69.3815
       ZZZ      -7.4908
    Hexadecapole Moments (Debye-Ang^3)
      XXXX    -233.2643   XXXY     146.6109   XXYY    -217.3546
      XYYY     200.9589   YYYY    -883.8032   XXXZ       6.1976
      XXYZ     -14.3218   XYYZ       0.3882   YYYZ      50.5561
      XXZZ     -60.2366   XYZZ      24.8692   YYZZ    -173.6254
      XZZZ       2.2274   YZZZ      -0.5739   ZZZZ    -153.1695
 -----------------------------------------------------------------
 Calculating analytic gradient of the SCF energy
 Job number = 111, Threshold = 1.00E-11
Integral type ranges set in mkLRange.C for JobNum: 11  <1-21|23-23>
Total number of integrals generated =           32535
Finding J and K together
 ML is being used
 Job number = 122, Threshold = 1.00E-11
Integral type ranges set in mkLRange.C for JobNum: 22  <1-21|1-21>
Total number of integrals generated =         6185762
 Gradient of Coulomb and Exchange Energy
            1           2           3           4           5           6
    1  -1.2929862  -5.9061109  11.9531502  11.2944136  -1.5419400  -3.2257016
    2  -0.0514210  -4.5574117  -8.8768458   9.6927531  -2.2184479  -2.3323697
    3  -0.0005718  12.8131132  -3.9711353   3.9832889  -3.1810260  -1.2004010
            7           8           9
    1  -1.6982808  -6.1959061  -3.3866383
    2   2.1089385   4.1421737   2.0926308
    3   3.1761872 -12.8181365   1.1986813
 Gradient of SCF Energy
            1           2           3           4           5           6
    1  -0.0102141   0.0016233   0.0314350   0.0307067  -0.0121780  -0.0148921
    2  -0.0003379   0.0083596  -0.0101371   0.0122685  -0.0100128  -0.0132472
    3   0.0000100   0.0269558   0.0100292  -0.0099673  -0.0208921  -0.0094773
            7           8           9
    1  -0.0128964   0.0022348  -0.0158194
    2   0.0091705  -0.0081955   0.0121317
    3   0.0208589  -0.0269882   0.0094709
 Max gradient component =       3.144E-02
 RMS gradient           =       1.544E-02
Get PCM gradient
PCM using dielectric constant = 7.5800000
Using C-PCM dielectric factor f(eps) = (eps-1)/eps = 0.868074
 PCM solver :  Matrix Inversion
 Computing fast CPCM-SWIG gradient.
 Job number = 115, Threshold = 1.00E-11
Integral type ranges set in mkLRange.C for JobNum: 15  <1-21|22-22>
Symmetry turned off temporarily
Total number of integrals generated =         4562130
Symmetry turned back on
Updating gradient with PCM contributions...
 -- total gradient after adding PCM contribution --
---------------------------------------------------
  Atom         X              Y              Z     
---------------------------------------------------
   1      -0.000722      -0.000044      -0.000004
   2       0.000050       0.000778      -0.000634
   3      -0.000329      -0.000623      -0.000358
   4      -0.000356       0.000548       0.000399
   5       0.000218       0.000114      -0.000073
   6       0.000393      -0.000479       0.000125
   7       0.000230      -0.000086       0.000074
   8       0.000145      -0.000716       0.000619
   9       0.000372       0.000507      -0.000148
---------------------------------------------------
Number of fixed atoms: 0
 Time req'd to calc PCM grad: 3.4 s (CPU) 3.4 s (wall)
 Time for PCM: 3.4 s (CPU) 3.4 s (wall)
PCM gradient status: 0
 Gradient time:  CPU 12.08 s  wall 12.09 s
 ------------------------------------------------------------------------------
                     drvman        : Timing summary (seconds)
 ------------------------------------------------------------------------------
     job step          cpu (% of tot)      sys (% of tot)     wall (% of tot)
 ------------------------------------------------------------------------------
 ------------------------------------------------------------------------------
   Grand Totals     0.1208E+02          0.1000E-05          0.1209E+02
 ------------------------------------------------------------------------------
 Geometry Optimization Parameters
   NAtoms,    NIC,     NZ,  NCons,   NDum,   NFix, NCnnct, MaxDiis
        9      48       0       0       0       0       0       0

 Cartesian Hessian Update
 Hessian Updated using BFGS Update


** GEOMETRY OPTIMIZATION IN DELOCALIZED INTERNAL COORDINATES **
   Searching for a Minimum

   Optimization Cycle:   7

                       Coordinates (Angstroms)
     ATOM                X               Y               Z
      1  B        -0.5639572170    1.9610311830    0.0701696436
      2  O         0.2823452011    2.5580509707   -0.9920231119
      3  O        -1.4683211534    2.9100639407    0.7131022865
      4  O        -1.3985955933    0.9504961925   -0.5734303775
      5  H        -0.9942624643    3.3430284258    1.4086274069
      6  H         0.9742302812    3.0581940680   -0.5819767392
      7  H        -0.8942824225    0.5509508824   -1.2676721200
      8  O         0.3211648328    1.4245911623    1.1329696146
      9  H         1.0477785353    0.9760831746    0.7232533970
   Point Group: c1    Number of degrees of freedom:    21


   Energy is   -326.710546234

 GETINT wrote B to file, NVib is           21
 Hessian Updated using BFGS Update

 21 Hessian modes will be used to form the next step
  Hessian Eigenvalues:
     0.001241    0.009623    0.014283    0.014828    0.106111    0.111406
     0.132967    0.159992    0.160013    0.160578    0.180261    0.196669
     0.207550    0.345345    0.350095    0.355682    0.366371    0.491986
     0.492054    0.492320    0.535186

 Minimum Search - Taking Simple RFO Step
 Searching for Lamda that Minimizes Along All modes
 Value Taken    Lamda =  -0.00017938
 Step Taken.  Stepsize is  0.269738

                             Maximum     Tolerance    Cnvgd?
         Gradient           0.000959      0.000300      NO
         Displacement       0.202770      0.001200      NO
         Energy change     -0.000096      0.000001      NO


 New Cartesian Coordinates Obtained by Inverse Iteration

 Displacement from previous Coordinates is:  0.188344
 ----------------------------------------------------------------
             Standard Nuclear Orientation (Angstroms)
    I     Atom           X                Y                Z
 ----------------------------------------------------------------
    1      B      -0.5531928782     1.9615094114     0.0699858422
    2      O       0.2890374644     2.5331353050    -1.0064226001
    3      O      -1.4531605896     2.9317613398     0.6942923265
    4      O      -1.3832733908     0.9314716586    -0.5556152557
    5      H      -1.0011211159     3.3082655339     1.4355434856
    6      H       0.9556311100     3.0747385904    -0.6076909065
    7      H      -0.9035454848     0.5828699578    -1.2930947335
    8      O       0.3245905383     1.4485149704     1.1474104279
    9      H       1.0311343467     0.9602232328     0.7486114135
 ----------------------------------------------------------------
 Nuclear Repulsion Energy =   184.8725366705 hartrees
 There are       21 alpha and       21 beta electrons
 JobOver = FALSE
Get surface
PCM using dielectric constant = 7.5800000
Using C-PCM dielectric factor f(eps) = (eps-1)/eps = 0.868074
 PCM solver :  Matrix Inversion
Discretize the solute cavity surface with Lebedev spheres
	Using 302 Lebedev grid points for each H atom
	Using 302 Lebedev grid points for other atoms
	Atomic van der Waals radii will be scaled by 1.20
 Serial switch compute.
 Remove points where switching function is < 1.0e-08
 Keep 1257 surface tesserae and discard 1461 interior tesserae
 Molecular Surface Area = 107.100 Angst**2
 Writing dummy charges to EXTERNAL_POINT_CHARGES_TWO) ...
Time req'd to discretize surface: 0.0 s (CPU) 0.0 s (wall)
 Time for PCM: 0.0 s (CPU) 0.0 s (wall)
 Applying Cartesian multipole field
    Component          Value
    ---------          -----
     (2,0,0)        1.00000E-11
     (0,2,0)        2.00000E-11
     (0,0,2)       -3.00000E-10
 Nucleus-field energy     =    -0.0000000172 hartrees
 Requested basis set is 6-31G(d)
 There are 28 shells and 83 basis functions
 Job number = 2, Threshold = 1.00E-11
Integral type ranges set in mkLRange.C for JobNum: 2  <1-22|1-22>
Symmetry turned off temporarily
Total number of integrals generated =           68082
Symmetry turned back on
 A cutoff of  1.0D-11 yielded    400 shell pairs
 There are      3615 function pairs
 Job number = 11, Threshold = 1.00E-11
Integral type ranges set in mkLRange.C for JobNum: 11  <1-21|23-23>
Total number of integrals generated =           32535
 Smallest overlap matrix eigenvalue = 3.94E-03
 Multipole matrices computed through 2nd order
 Guess MOs from SCF MO coefficient file
Reading MOs from coefficient file
Reading MOs from coefficient file
 A restricted Hartree-Fock SCF calculation will be
 performed using Pulay DIIS extrapolation
 Polarizable Continuum solvation model will be applied
 SCF converges when DIIS error is below 1.0E-08
Geometry optimization detected.  Setting ReadMinima to 0
Setting SaveMinima to 0
Get PCM energy
PCM using dielectric constant = 7.5800000000
Using C-PCM dielectric factor f(eps) = (eps-1)/eps = 0.868074
 PCM solver :  Matrix Inversion
 Time for PCM: 0.0 s (CPU) 0.0 s (wall)
Finding J and K together
 Job number = 22, Threshold = 1.00E-11
Integral type ranges set in mkLRange.C for JobNum: 22  <1-21|1-21>
Storing 27.82% of integrals
Total number of integrals generated =         6584345
Fock build time:  1.34 s (CPU) 1.34 s (wall)
DIIS Errors:  Max 2.68E-02 RMS 2.14E-03

Current DIIS subspace size = 1
REM_GRID_RESTART_DIIS = 0

 ---------------------------------------
  Cycle       Energy         DIIS Error
 ---------------------------------------
    1    -326.6002635999      2.14E-03  00000
Get PCM energy
PCM using dielectric constant = 7.5800000000
Using C-PCM dielectric factor f(eps) = (eps-1)/eps = 0.868074
 PCM solver :  Matrix Inversion
 Job number = 15, Threshold = 1.00E-11
Integral type ranges set in mkLRange.C for JobNum: 15  <1-21|22-22>
Symmetry turned off temporarily
Total number of integrals generated =         4544055
Symmetry turned back on
 BuildS Time: 0.03 s (CPU) 0.03 s (wall)
 C written to file 854
 Attempting to invert C...
 Time req'd to invert C: 0.44 s (CPU) 0.44 s (wall)
 C^-1 written to file 828
 Time for PCM: 0.8 s (CPU) 0.8 s (wall)
Evaluate Gaussian charge contribution to one-electron Hamiltonian from PCM charges
 Job number = 15, Threshold = 1.00E-11
Integral type ranges set in mkLRange.C for JobNum: 15  <1-21|22-22>
Symmetry turned off temporarily
Symmetry turned back on
Finding J and K together
 Job number = 22, Threshold = 1.00E-11
Integral type ranges set in mkLRange.C for JobNum: 22  <1-21|1-21>
Storing 27.82% of integrals
Reusing in-core integrals buffer for job 22
Total number of integrals generated =        11095865
Fock build time:  0.86 s (CPU) 0.86 s (wall)
DIIS Errors:  Max 1.06E-02 RMS 1.37E-03

Current DIIS subspace size = 2
REM_GRID_RESTART_DIIS = 0

    2    -326.7082888408      1.37E-03  00000
Get PCM energy
PCM using dielectric constant = 7.5800000000
Using C-PCM dielectric factor f(eps) = (eps-1)/eps = 0.868074
 PCM solver :  Matrix Inversion
 Job number = 15, Threshold = 1.00E-11
Integral type ranges set in mkLRange.C for JobNum: 15  <1-21|22-22>
Symmetry turned off temporarily
Total number of integrals generated =         4544055
Symmetry turned back on
 Time for PCM: 0.3 s (CPU) 0.3 s (wall)
Evaluate Gaussian charge contribution to one-electron Hamiltonian from PCM charges
 Job number = 15, Threshold = 1.00E-11
Integral type ranges set in mkLRange.C for JobNum: 15  <1-21|22-22>
Symmetry turned off temporarily
Symmetry turned back on
Finding J and K together
 Job number = 22, Threshold = 1.00E-11
Integral type ranges set in mkLRange.C for JobNum: 22  <1-21|1-21>
Storing 27.82% of integrals
Reusing in-core integrals buffer for job 22
Total number of integrals generated =        11095865
Fock build time:  0.86 s (CPU) 0.86 s (wall)
DIIS Errors:  Max 4.28E-03 RMS 5.25E-04

Current DIIS subspace size = 3
REM_GRID_RESTART_DIIS = 0

    3    -326.7101496528      5.25E-04  00000
Get PCM energy
PCM using dielectric constant = 7.5800000000
Using C-PCM dielectric factor f(eps) = (eps-1)/eps = 0.868074
 PCM solver :  Matrix Inversion
 Job number = 15, Threshold = 1.00E-11
Integral type ranges set in mkLRange.C for JobNum: 15  <1-21|22-22>
Symmetry turned off temporarily
Total number of integrals generated =         4544055
Symmetry turned back on
 Time for PCM: 0.3 s (CPU) 0.3 s (wall)
Evaluate Gaussian charge contribution to one-electron Hamiltonian from PCM charges
 Job number = 15, Threshold = 1.00E-11
Integral type ranges set in mkLRange.C for JobNum: 15  <1-21|22-22>
Symmetry turned off temporarily
Symmetry turned back on
Finding J and K together
 Job number = 22, Threshold = 1.00E-11
Integral type ranges set in mkLRange.C for JobNum: 22  <1-21|1-21>
Storing 27.82% of integrals
Reusing in-core integrals buffer for job 22
Total number of integrals generated =        11095865
Fock build time:  0.86 s (CPU) 0.86 s (wall)
DIIS Errors:  Max 2.28E-03 RMS 2.14E-04

Current DIIS subspace size = 4
REM_GRID_RESTART_DIIS = 0

    4    -326.7105774608      2.14E-04  00000
Get PCM energy
PCM using dielectric constant = 7.5800000000
Using C-PCM dielectric factor f(eps) = (eps-1)/eps = 0.868074
 PCM solver :  Matrix Inversion
 Job number = 15, Threshold = 1.00E-11
Integral type ranges set in mkLRange.C for JobNum: 15  <1-21|22-22>
Symmetry turned off temporarily
Total number of integrals generated =         4544055
Symmetry turned back on
 Time for PCM: 0.3 s (CPU) 0.3 s (wall)
Evaluate Gaussian charge contribution to one-electron Hamiltonian from PCM charges
 Job number = 15, Threshold = 1.00E-11
Integral type ranges set in mkLRange.C for JobNum: 15  <1-21|22-22>
Symmetry turned off temporarily
Symmetry turned back on
Finding J and K together
 Job number = 22, Threshold = 1.00E-11
Integral type ranges set in mkLRange.C for JobNum: 22  <1-21|1-21>
Storing 27.82% of integrals
Reusing in-core integrals buffer for job 22
