                  Welcome to Q-Chem
     A Quantum Leap Into The Future Of Chemistry


 Q-Chem 4.3 (beta), Q-Chem, Inc., Pleasanton, CA (2015)

 Y. Shao,  Z. Gan,  E. Epifanovsky,  A. T. B. Gilbert,  M. Wormit,  
 J. Kussmann,  A. W. Lange,  A. Behn,  J. Deng,  X. Feng,  D. Ghosh,  
 M. Goldey,  P. R. Horn,  L. D. Jacobson,  I. Kaliman,  R. Z. Khaliullin,  
 T. Kus,  A. Landau,  J. Liu,  E. I. Proynov,  Y. M. Rhee,  R. M. Richard,  
 M. A. Rohrdanz,  R. P. Steele,  E. J. Sundstrom,  H. L. Woodcock III,  
 P. M. Zimmerman,  D. Zuev,  B. Albrecht,  E. Alguire,  B. Austin,  
 S. A. Baeppler,  G. J. O. Beran,  Y. A. Bernard,  E. Berquist,  
 K. Brandhorst,  K. B. Bravaya,  S. T. Brown,  D. Casanova,  C.-M. Chang,  
 Y. Chen,  S. H. Chien,  K. D. Closser,  D. L. Crittenden,  M. Diedenhofen,  
 R. A. DiStasio Jr.,  H. Do,  A. D. Dutoi,  R. G. Edgar,  P.-T. Fang,  
 S. Fatehi,  Q. Feng,  L. Fusti-Molnar,  A. Ghysels,  
 A. Golubeva-Zadorozhnaya,  J. Gomes,  A. Gunina,  M. W. D. Hanson-Heine,  
 P. H. P. Harbach,  A. W. Hauser,  E. G. Hohenstein,  Z. C. Holden,  K. Hui,  
 T.-C. Jagau,  H. Ji,  B. Kaduk,  K. Khistyaev,  Jaehoon Kim,  Jihan Kim,  
 R. A. King,  P. Klunzinger,  D. Kosenkov,  T. Kowalczyk,  C. M. Krauter,  
 K. U. Lao,  A. Laurent,  K. V. Lawler,  S. Lehtola,  S. V. Levchenko,  
 C. Y. Lin,  Y.-S. Lin,  F. Liu,  E. Livshits,  R. C. Lochan,  A. Luenser,  
 P. Manohar,  S. F. Manzer,  S.-P. Mao,  N. Mardirossian,  A. V. Marenich,  
 L. A. Martinez-Martinez,  S. A. Maurer,  N. J. Mayhall,  K. Nanda,  
 C. M. Oana,  R. Olivares-Amaya,  D. P. O'Neill,  J. A. Parkhill,  
 T. M. Perrine,  R. Peverati,  P. A. Pieniazek,  F. Plasser,  A. Prociuk,  
 D. R. Rehn,  E. Rosta,  N. J. Russ,  N. Sergueev,  S. M. Sharada,  
 S. Sharma,  D. W. Small,  A. Sodt,  T. Stauch,  T. Stein,  D. Stuck,  
 Y.-C. Su,  A. J. W. Thom,  T. Tsuchimochi,  L. Vogt,  O. Vydrov,  T. Wang,  
 M. A. Watson,  J. Wenzel,  A. White,  C. F. Williams,  V. Vanovschi,  
 S. Yeganeh,  S. R. Yost,  Z.-Q. You,  I. Y. Zhang,  X. Zhang,  Y. Zhao,  
 B. R. Brooks,  G. K. L. Chan,  D. M. Chipman,  C. J. Cramer,  
 W. A. Goddard III,  M. S. Gordon,  W. J. Hehre,  A. Klamt,  
 H. F. Schaefer III,  M. W. Schmidt,  C. D. Sherrill,  D. G. Truhlar,  
 A. Warshel,  X. Xu,  A. Aspuru-Guzik,  R. Baer,  A. T. Bell,  N. A. Besley,  
 J.-D. Chai,  A. Dreuw,  B. D. Dunietz,  T. R. Furlani,  S. R. Gwaltney,  
 C.-P. Hsu,  Y. Jung,  J. Kong,  D. S. Lambrecht,  W. Liang,  C. Ochsenfeld,  
 V. A. Rassolov,  L. V. Slipchenko,  J. E. Subotnik,  T. Van Voorhis,  
 J. M. Herbert,  A. I. Krylov,  P. M. W. Gill,  M. Head-Gordon

 Contributors to earlier versions of Q-Chem not listed above: 
 R. D. Adamson,  J. Baker,  E. F. C. Byrd,  A. K. Chakraborty,  C.-L. Cheng,  
 H. Dachsel,  R. J. Doerksen,  G. Hawkins,  A. Heyden,  S. Hirata,  
 G. Kedziora,  F. J. Keil,  C. Kelley,  P. P. Korambath,  W. Kurlancheek,  
 A. M. Lee,  M. S. Lee,  D. Liotard,  I. Lotan,  P. E. Maslen,  N. Nair,  
 D. Neuhauser,  R. Olson,  B. Peters,  J. Ritchie,  N. E. Schultz,  
 N. Shenvi,  A. C. Simmonett,  K. S. Thanthiriwatte,  Q. Wu,  W. Zhang

 Please cite Q-Chem as follows:
 Y. Shao et al., Mol. Phys. 113, 184-215 (2014)
 DOI: 10.1080/00268976.2014.952696

 Q-Chem 4.3.0 for Intel X86 EM64T Linux

 Parts of Q-Chem use Armadillo 4.550.3 (Singapore Sling Deluxe).
 http://arma.sourceforge.net/

 Q-Chem begins on Thu Aug  6 11:56:39 2015  

Host: 
0

     Scratch files written to /home/ben/scratch/qchem/qchem20662//
 Mar2415 |home|ben|opt|apps|qchem|trunk_RNUM -1

Checking the input file for inconsistencies...	...done.

--------------------------------------------------------------
User input:
--------------------------------------------------------------
$molecule
  -1 1
    B         -0.56570        1.96068        0.07064
    O          0.25487        2.66727       -0.93869
    O         -1.46324        2.92335        0.73907
    O         -1.39180        0.93604       -0.59782
    H         -0.88069        3.53511        1.25833
    H          0.86420        3.26526       -0.43440
    H         -0.76724        0.36997       -1.12006
    O          0.30336        1.31482        1.08004
    H          0.95234        0.75999        0.57591
$end

$rem
jobtype          opt
basis            6-31G*
method           hf
$end
--------------------------------------------------------------
 ----------------------------------------------------------------
             Standard Nuclear Orientation (Angstroms)
    I     Atom           X                Y                Z
 ----------------------------------------------------------------
    1      B      -0.0000202516     0.0527006519    -0.0000652355
    2      O      -0.2456054669    -0.7925148863     1.1901659177
    3      O      -1.1730615035     0.9150556685    -0.2438444228
    4      O       1.1730697078     0.9150992568     0.2434418578
    5      H      -1.9158420758     0.3108726745    -0.5016925931
    6      H      -0.9691015354    -1.4229648097     0.9406266901
    7      H       1.9148291089     0.3113106997     0.5051237742
    8      O       0.2455178471    -0.7928048463    -1.1900737555
    9      H       0.9708510843    -1.4214033661    -0.9412484714
 ----------------------------------------------------------------
 Molecular Point Group                 C1    NOp =  1
 Largest Abelian Subgroup              C1    NOp =  1
 Nuclear Repulsion Energy =   183.2810637680 hartrees
 There are       21 alpha and       21 beta electrons
 Requested basis set is 6-31G(d)
 There are 28 shells and 83 basis functions

Total QAlloc Memory Limit   2000 MB
Mega-Array Size        61 MB
MEM_STATIC part        62 MB
 A cutoff of  1.0D-11 yielded    400 shell pairs
 There are      3615 function pairs
 
 -------------------------------------------------------
 OpenMP Integral Computing Module                       
 Release: version 1.0, May 2013, Q-Chem Inc. Pittsburgh 
 -------------------------------------------------------
 Integral Job Info:
 Integral job number is                      11
 Integral operator is                         1
 short-range coefficients               -999999
 long-range coefficients                -999999
 Omega coefficients                           0
 if combine SR and LR in K              -999999
 Integral screening is                        0
 Integral computing path is                   2
 max size of driver memory is            800000
 size of driver memory is                593474
 size of scratch memory is              2260544
 max col of scratch BK array               1296
 max len of scratch array in speh3          155
 max len of scratch index in speh4           18
 max int batch size is                      520
 min int batch size is                       52
 fixed nKL is                                52
 max L of basis functions is                  2
 order of int derivative is                   0
 number of shells is                         28
 number of basis is                          83
 number of cartesian basis is                83
 number of contracted shell pairs           400
 number of primitive shell pairs           1790
 maxK2 (contraction) of shell pair           36
 max number of K2 of shell pair               1
 max number of CS2 of shell pair             44
 max number of PS2 of shell pair            222
 mem total for path MDJ                   21832
 -------------------------------------------------------
 Smallest overlap matrix eigenvalue = 3.73E-03

  Scale SEOQF with 1.000000e-01/1.000000e+00/1.000000e+00

 Standard Electronic Orientation quadrupole field applied
 Nucleus-field energy     =    -0.0000000068 hartrees
 Guess from superposition of atomic densities
 Warning:  Energy on first SCF cycle will be non-variational
 A restricted Hartree-Fock SCF calculation will be
 performed using Pulay DIIS extrapolation
 SCF converges when DIIS error is below 1.0E-08
 ---------------------------------------
  Cycle       Energy         DIIS Error
 ---------------------------------------
    1    -326.8930701838      8.59E-02
    2    -326.4148439356      1.54E-02
    3    -326.5513297439      8.39E-03
    4    -326.5927645007      8.68E-04
    5    -326.5938527928      2.29E-04
    6    -326.5939216212      8.17E-05
    7    -326.5939287525      2.75E-05
    8    -326.5939297109      4.65E-06
    9    -326.5939297476      1.07E-06
   10    -326.5939297491      2.01E-07
   11    -326.5939297491      5.92E-08
   12    -326.5939297492      1.61E-08
   13    -326.5939297492      5.74E-09 Convergence criterion met
 ---------------------------------------
 SCF time:  CPU 1.55 s  wall 1.56 s
 SCF   energy in the final basis set = -326.5939297492
 Total energy in the final basis set = -326.5939297492
 Analysis of SCF Wavefunction
 
 --------------------------------------------------------------
 
                    Orbital Energies (a.u.)
 --------------------------------------------------------------
 
 Alpha MOs
 -- Occupied --
-20.313 -20.313 -20.305 -20.305  -7.409  -1.128  -1.061  -1.056
 -1.055  -0.507  -0.450  -0.436  -0.375  -0.363  -0.353  -0.302
 -0.277  -0.263  -0.239  -0.219  -0.216
 -- Virtual --
  0.386   0.432   0.471   0.481   0.702   0.706   0.737   0.791
  0.959   0.982   0.989   1.016   1.202   1.275   1.281   1.325
  1.346   1.363   1.388   1.470   1.481   1.552   1.581   1.608
  1.630   1.667   1.728   1.772   1.810   1.832   1.884   2.045
  2.051   2.143   2.156   2.206   2.234   2.290   2.301   2.352
  2.355   2.403   2.418   2.446   2.793   2.818   2.850   2.882
  2.920   2.970   3.022   3.153   3.208   3.294   3.300   3.387
  3.401   4.237   4.344   4.503   4.512   4.700
 --------------------------------------------------------------
 
          Ground-State Mulliken Net Atomic Charges

     Atom                 Charge (a.u.)
  ----------------------------------------
      1 B                     0.942780
      2 O                    -0.849041
      3 O                    -0.830187
      4 O                    -0.830304
      5 H                     0.354749
      6 H                     0.353065
      7 H                     0.354812
      8 O                    -0.848893
      9 H                     0.353019
  ----------------------------------------
  Sum of atomic charges =    -1.000000

 -----------------------------------------------------------------
                    Cartesian Multipole Moments
 -----------------------------------------------------------------
    Charge (ESU x 10^10)
                -4.8032
    Dipole Moment (Debye)
         X       0.0013      Y      -3.8247      Z       0.0051
       Tot       3.8247
    Quadrupole Moments (Debye-Ang)
        XX     -26.8139     XY      -0.0002     YY     -35.6338
        XZ       0.6026     YZ       0.0005     ZZ     -39.6829
    Octopole Moments (Debye-Ang^2)
       XXX      -0.0111    XXY     -12.0191    XYY      -0.0013
       YYY     -12.3243    XXZ       0.0157    XYZ       1.6241
       YYZ       0.0081    XZZ       0.0190    YZZ       4.7101
       ZZZ       0.0031
    Hexadecapole Moments (Debye-Ang^3)
      XXXX    -123.8985   XXXY      -0.0117   XXYY     -53.5452
      XYYY       0.0089   YYYY    -142.1589   XXXZ       7.5046
      XXYZ       0.0183   XYYZ      -7.2980   YYYZ      -0.0200
      XXZZ     -46.1534   XYZZ       0.0013   YYZZ     -50.8459
      XZZZ       2.0585   YZZZ       0.0056   ZZZZ    -158.2729
 -----------------------------------------------------------------
 Calculating analytic gradient of the SCF energy
 Gradient of Coulomb and Exchange Energy
            1           2           3           4           5           6
    1  -0.0006410   0.0514364  10.0699187 -10.0738076   3.2214595   2.7200349
    2   0.9745021   6.4230715 -11.3587638 -11.3576271   1.7720149   2.6750784
    3  -0.0026386 -13.2293489   1.5112416  -1.4934992   1.0760215   0.3713162
            7           8           9
    1  -3.2174921  -0.0440783  -2.7268305
    2   1.7706570   6.4325142   2.6685527
    3  -1.0897182  13.2253301  -0.3687044
 Gradient of SCF Energy
            1           2           3           4           5           6
    1   0.0000052   0.0241929   0.0245285  -0.0244866  -0.0342097  -0.0327633
    2  -0.0178268   0.0348983   0.0290579   0.0290522  -0.0273742  -0.0276793
    3   0.0000219   0.0096247   0.0160035  -0.0161816  -0.0101636  -0.0111805
            7           8           9
    1   0.0341688  -0.0242591   0.0328234
    2  -0.0273561   0.0348273  -0.0275991
    3   0.0103253  -0.0096048   0.0111552
 Max gradient component =       3.490E-02
 RMS gradient           =       2.395E-02
 Gradient time:  CPU 1.25 s  wall 1.25 s
 Geometry Optimization Parameters
   NAtoms,    NIC,     NZ,  NCons,   NDum,   NFix, NCnnct, MaxDiis
        9      48       0       0       0       0       0       0


** GEOMETRY OPTIMIZATION IN DELOCALIZED INTERNAL COORDINATES **
   Searching for a Minimum

   Optimization Cycle:   1

                       Coordinates (Angstroms)
     ATOM                X               Y               Z
      1  B        -0.0000202516    0.0527006519   -0.0000652355
      2  O        -0.2456054669   -0.7925148863    1.1901659177
      3  O        -1.1730615035    0.9150556685   -0.2438444228
      4  O         1.1730697078    0.9150992568    0.2434418578
      5  H        -1.9158420758    0.3108726745   -0.5016925931
      6  H        -0.9691015354   -1.4229648097    0.9406266901
      7  H         1.9148291089    0.3113106997    0.5051237742
      8  O         0.2455178471   -0.7928048463   -1.1900737555
      9  H         0.9708510843   -1.4214033661   -0.9412484714
   Point Group: c1    Number of degrees of freedom:    21


   Energy is   -326.593929749


 Attempting to Generate Delocalized Internal Coordinates

 21 Hessian modes will be used to form the next step
  Hessian Eigenvalues:
     0.014281    0.014284    0.014826    0.014829    0.106104    0.108712
     0.111406    0.160000    0.160000    0.160000    0.160000    0.202804
     0.202998    0.345328    0.345352    0.350083    0.350105    0.491985
     0.491985    0.492042    0.492066

 Minimum Search - Taking Simple RFO Step
 Searching for Lamda that Minimizes Along All modes
 Value Taken    Lamda =  -0.01975253
 Step Taken.  Stepsize is  0.230828

                             Maximum     Tolerance    Cnvgd?
         Gradient           0.061289      0.000300      NO
         Displacement       0.114824      0.001200      NO
         Energy change     *********      0.000001      NO


 New Cartesian Coordinates Obtained by Inverse Iteration

 Displacement from previous Coordinates is:  0.402835
 ----------------------------------------------------------------
             Standard Nuclear Orientation (Angstroms)
    I     Atom           X                Y                Z
 ----------------------------------------------------------------
    1      B      -0.0000266593     0.0528228372    -0.0000847298
    2      O      -0.1950780069    -0.8212239471     1.1858058634
    3      O      -1.1484057279     0.9203343506    -0.2744999051
    4      O       1.1484263699     0.9203082511     0.2741517904
    5      H      -1.8511534245     0.3508516256    -0.5484768055
    6      H      -0.8727311080    -1.4394173580     0.9555181885
    7      H       1.8499502601     0.3511601063     0.5519529641
    8      O       0.1950119366    -0.8215775186    -1.1856958464
    9      H       0.8746432749    -1.4379073040    -0.9562377582
 ----------------------------------------------------------------
 Molecular Point Group                 C1    NOp =  1
 Largest Abelian Subgroup              C1    NOp =  1
 Nuclear Repulsion Energy =   184.6952805536 hartrees
 There are       21 alpha and       21 beta electrons
 Applying Cartesian multipole field
    Component          Value
    ---------          -----
     (2,0,0)        1.00000E-11
     (0,2,0)        2.00000E-10
     (0,0,2)       -3.00000E-10
 Nucleus-field energy     =    -0.0000000064 hartrees
 Requested basis set is 6-31G(d)
 There are 28 shells and 83 basis functions
 A cutoff of  1.0D-11 yielded    400 shell pairs
 There are      3615 function pairs
 Smallest overlap matrix eigenvalue = 3.81E-03
 Guess MOs from SCF MO coefficient file
 Reading MOs from coefficient file
 Reading MOs from coefficient file
 A restricted Hartree-Fock SCF calculation will be
 performed using Pulay DIIS extrapolation
 SCF converges when DIIS error is below 1.0E-08
Geometry optimization detected.  Setting ReadMinima to 0
Setting SaveMinima to 0
 ---------------------------------------
  Cycle       Energy         DIIS Error
 ---------------------------------------
    1    -326.6840074859      4.64E-03
    2    -326.6040575130      6.79E-04
    3    -326.6045706869      2.09E-04
    4    -326.6046373819      9.60E-05
    5    -326.6046517521      3.09E-05
    6    -326.6046533097      6.80E-06
    7    -326.6046534281      2.35E-06
    8    -326.6046534388      9.42E-07
    9    -326.6046534406      2.45E-07
   10    -326.6046534407      6.99E-08
   11    -326.6046534407      1.75E-08
   12    -326.6046534407      4.84E-09 Convergence criterion met
 ---------------------------------------
 SCF time:  CPU 1.46 s  wall 1.46 s
 SCF   energy in the final basis set = -326.6046534407
 Total energy in the final basis set = -326.6046534407
 Analysis of SCF Wavefunction
 
 --------------------------------------------------------------
 
                    Orbital Energies (a.u.)
 --------------------------------------------------------------
 
 Alpha MOs
 -- Occupied --
-20.307 -20.307 -20.298 -20.298  -7.406  -1.137  -1.071  -1.070
 -1.068  -0.519  -0.460  -0.450  -0.379  -0.368  -0.355  -0.300
 -0.281  -0.264  -0.236  -0.223  -0.218
 -- Virtual --
  0.398   0.448   0.481   0.491   0.705   0.712   0.728   0.795
  0.951   0.995   0.995   1.020   1.224   1.302   1.305   1.347
  1.353   1.369   1.421   1.497   1.518   1.571   1.575   1.602
  1.641   1.671   1.710   1.758   1.806   1.840   1.909   2.028
  2.036   2.140   2.150   2.215   2.234   2.284   2.300   2.345
  2.353   2.408   2.424   2.436   2.795   2.813   2.894   2.911
  2.947   3.045   3.088   3.137   3.248   3.302   3.315   3.398
  3.436   4.242   4.341   4.514   4.529   4.705
 --------------------------------------------------------------
 
          Ground-State Mulliken Net Atomic Charges

     Atom                 Charge (a.u.)
  ----------------------------------------
      1 B                     0.912423
      2 O                    -0.862567
      3 O                    -0.827777
      4 O                    -0.827914
      5 H                     0.369122
      6 H                     0.364990
      7 H                     0.369191
      8 O                    -0.862416
      9 H                     0.364949
  ----------------------------------------
  Sum of atomic charges =    -1.000000

 -----------------------------------------------------------------
                    Cartesian Multipole Moments
 -----------------------------------------------------------------
    Charge (ESU x 10^10)
                -4.8032
    Dipole Moment (Debye)
         X       0.0011      Y      -3.7250      Z       0.0048
       Tot       3.7250
    Quadrupole Moments (Debye-Ang)
        XX     -26.8848     XY      -0.0014     YY     -35.5334
        XZ       0.4074     YZ       0.0008     ZZ     -39.3516
    Octopole Moments (Debye-Ang^2)
       XXX      -0.0164    XXY     -10.5496    XYY       0.0008
       YYY     -12.3317    XXZ       0.0136    XYZ       1.8755
       YYZ       0.0085    XZZ       0.0209    YZZ       4.9783
       ZZZ       0.0029
    Hexadecapole Moments (Debye-Ang^3)
      XXXX    -116.6364   XXXY      -0.0130   XXYY     -52.6418
      XYYY       0.0090   YYYY    -144.7633   XXXZ       4.7739
      XXYZ       0.0186   XYYZ      -8.6849   YYYZ      -0.0228
      XXZZ     -43.8378   XYZZ       0.0020   YYZZ     -51.3767
      XZZZ      -1.9723   YZZZ       0.0056   ZZZZ    -158.3978
 -----------------------------------------------------------------
 Calculating analytic gradient of the SCF energy
 Gradient of Coulomb and Exchange Energy
            1           2           3           4           5           6
    1  -0.0004224  -0.5014660   9.9218086  -9.9273542   3.2980354   2.7554116
    2   1.1367678   6.5292252 -11.7506047 -11.7490437   1.8484938   2.8027345
    3  -0.0017421 -13.2513103   1.7269686  -1.7082551   1.2179005   0.3758038
            7           8           9
    1  -3.2930505   0.5103350  -2.7632974
    2   1.8473170   6.5396347   2.7954753
    3  -1.2330359  13.2460768  -0.3724064
 Gradient of SCF Energy
            1           2           3           4           5           6
    1  -0.0000048  -0.0011507  -0.0027486   0.0027315   0.0006838  -0.0002224
    2  -0.0147970   0.0022224   0.0046684   0.0046780  -0.0008224   0.0013304
    3   0.0000090  -0.0000429  -0.0023787   0.0023744   0.0024016  -0.0005797
            7           8           9
    1  -0.0006660   0.0011686   0.0002086
    2  -0.0008304   0.0022266   0.0013239
    3  -0.0024036   0.0000355   0.0005842
 Max gradient component =       1.480E-02
 RMS gradient           =       3.441E-03
 Gradient time:  CPU 1.25 s  wall 1.25 s
 Geometry Optimization Parameters
   NAtoms,    NIC,     NZ,  NCons,   NDum,   NFix, NCnnct, MaxDiis
        9      48       0       0       0       0       0       0

 Cartesian Hessian Update
 Hessian Updated using BFGS Update


** GEOMETRY OPTIMIZATION IN DELOCALIZED INTERNAL COORDINATES **
   Searching for a Minimum

   Optimization Cycle:   2

                       Coordinates (Angstroms)
     ATOM                X               Y               Z
      1  B        -0.0000266593    0.0528228372   -0.0000847298
      2  O        -0.1950780069   -0.8212239471    1.1858058634
      3  O        -1.1484057279    0.9203343506   -0.2744999051
      4  O         1.1484263699    0.9203082511    0.2741517904
      5  H        -1.8511534245    0.3508516256   -0.5484768055
      6  H        -0.8727311080   -1.4394173580    0.9555181885
      7  H         1.8499502601    0.3511601063    0.5519529641
      8  O         0.1950119366   -0.8215775186   -1.1856958464
      9  H         0.8746432749   -1.4379073040   -0.9562377582
   Point Group: c1    Number of degrees of freedom:    21


   Energy is   -326.604653441

 Hessian Updated using BFGS Update

 19 Hessian modes will be used to form the next step
  Hessian Eigenvalues:
     0.014248    0.014283    0.014653    0.014828    0.106104    0.107298
     0.111406    0.158929    0.160028    0.197669    0.203020    0.340207
     0.345340    0.347216    0.350094    0.491985    0.492013    0.492056
     0.538526

 Minimum Search - Taking Simple RFO Step
 Searching for Lamda that Minimizes Along All modes
 Value Taken    Lamda =  -0.00122970
 Step Taken.  Stepsize is  0.217938

                             Maximum     Tolerance    Cnvgd?
         Gradient           0.007347      0.000300      NO
         Displacement       0.196577      0.001200      NO
         Energy change     -0.010724      0.000001      NO


 New Cartesian Coordinates Obtained by Inverse Iteration

 Displacement from previous Coordinates is:  0.228950
 ----------------------------------------------------------------
             Standard Nuclear Orientation (Angstroms)
    I     Atom           X                Y                Z
 ----------------------------------------------------------------
    1      B      -0.0000218102     0.0667963560    -0.0000904190
    2      O      -0.1649984059    -0.8242465192     1.1828323363
    3      O      -1.1504697446     0.9232511368    -0.2653361348
    4      O       1.1506136778     0.9230784514     0.2649423462
    5      H      -1.8387949119     0.3697353097    -0.5983732256
    6      H      -0.8224285211    -1.4650871783     0.9611846753
    7      H       1.8373876305     0.3700478905     0.6019540648
    8      O       0.1648138958    -0.8246958222    -1.1826663306
    9      H       0.8245351045    -1.4635285816    -0.9620135511
 ----------------------------------------------------------------
 Molecular Point Group                 C1    NOp =  1
 Largest Abelian Subgroup              C1    NOp =  1
 Nuclear Repulsion Energy =   184.8366370704 hartrees
 There are       21 alpha and       21 beta electrons
 Applying Cartesian multipole field
    Component          Value
    ---------          -----
     (2,0,0)        1.00000E-11
     (0,2,0)        2.00000E-10
     (0,0,2)       -3.00000E-10
 Nucleus-field energy     =    -0.0000000061 hartrees
 Requested basis set is 6-31G(d)
 There are 28 shells and 83 basis functions
 A cutoff of  1.0D-11 yielded    400 shell pairs
 There are      3615 function pairs
 Smallest overlap matrix eigenvalue = 3.85E-03
 Guess MOs from SCF MO coefficient file
 Reading MOs from coefficient file
 Reading MOs from coefficient file
 A restricted Hartree-Fock SCF calculation will be
 performed using Pulay DIIS extrapolation
 SCF converges when DIIS error is below 1.0E-08
Geometry optimization detected.  Setting ReadMinima to 0
Setting SaveMinima to 0
 ---------------------------------------
  Cycle       Energy         DIIS Error
 ---------------------------------------
    1    -326.6083867005      1.51E-03
    2    -326.6053635122      3.58E-04
    3    -326.6055742219      1.63E-04
    4    -326.6056128389      7.62E-05
    5    -326.6056251504      1.64E-05
    6    -326.6056260502      4.70E-06
    7    -326.6056261032      1.43E-06
    8    -326.6056261058      3.62E-07
    9    -326.6056261061      9.76E-08
   10    -326.6056261061      3.12E-08
   11    -326.6056261061      6.83E-09 Convergence criterion met
 ---------------------------------------
 SCF time:  CPU 1.33 s  wall 1.34 s
 SCF   energy in the final basis set = -326.6056261061
 Total energy in the final basis set = -326.6056261061
 Analysis of SCF Wavefunction
 
 --------------------------------------------------------------
 
                    Orbital Energies (a.u.)
 --------------------------------------------------------------
 
 Alpha MOs
 -- Occupied --
-20.304 -20.304 -20.298 -20.298  -7.405  -1.137  -1.072  -1.070
 -1.064  -0.520  -0.459  -0.452  -0.385  -0.366  -0.350  -0.296
 -0.282  -0.265  -0.234  -0.223  -0.217
 -- Virtual --
  0.401   0.454   0.479   0.489   0.704   0.709   0.729   0.796
  0.946   0.998   0.999   1.022   1.227   1.302   1.308   1.349
  1.354   1.373   1.425   1.499   1.521   1.570   1.572   1.597
  1.645   1.676   1.715   1.762   1.785   1.842   1.918   2.019
  2.025   2.142   2.147   2.220   2.235   2.285   2.296   2.348
  2.349   2.413   2.430   2.447   2.794   2.806   2.899   2.915
  2.943   3.059   3.093   3.138   3.256   3.301   3.326   3.388
  3.440   4.244   4.342   4.508   4.531   4.705
 --------------------------------------------------------------
 
          Ground-State Mulliken Net Atomic Charges

     Atom                 Charge (a.u.)
  ----------------------------------------
      1 B                     0.916404
      2 O                    -0.870132
      3 O                    -0.826359
      4 O                    -0.826522
      5 H                     0.373225
      6 H                     0.365043
      7 H                     0.373310
      8 O                    -0.869971
      9 H                     0.365000
  ----------------------------------------
  Sum of atomic charges =    -1.000000

 -----------------------------------------------------------------
                    Cartesian Multipole Moments
 -----------------------------------------------------------------
    Charge (ESU x 10^10)
                -4.8032
    Dipole Moment (Debye)
         X       0.0011      Y      -3.6644      Z       0.0048
       Tot       3.6644
    Quadrupole Moments (Debye-Ang)
        XX     -27.1880     XY      -0.0023     YY     -35.3120
        XZ       0.7065     YZ       0.0014     ZZ     -39.0536
    Octopole Moments (Debye-Ang^2)
       XXX      -0.0229    XXY     -10.0717    XYY       0.0034
       YYY     -13.1733    XXZ       0.0121    XYZ       2.2731
       YYZ       0.0098    XZZ       0.0239    YZZ       5.0515
       ZZZ       0.0026
    Hexadecapole Moments (Debye-Ang^3)
      XXXX    -116.4061   XXXY      -0.0162   XXYY     -52.9788
      XYYY       0.0084   YYYY    -145.0197   XXXZ       5.1152
      XXYZ       0.0199   XYYZ      -9.0971   YYYZ      -0.0235
      XXZZ     -42.8171   XYZZ       0.0016   YYZZ     -51.0994
      XZZZ      -3.1788   YZZZ       0.0079   ZZZZ    -157.8609
 -----------------------------------------------------------------
 Calculating analytic gradient of the SCF energy
 Gradient of Coulomb and Exchange Energy
            1           2           3           4           5           6
    1  -0.0007126  -0.6814778  10.0679066 -10.0760867   3.2809527   2.6715341
    2   0.9520387   6.5077139 -11.6772475 -11.6736379   1.7846118   2.9058503
    3  -0.0016440 -13.1440247   1.3676471  -1.3478346   1.4560030   0.3247036
            7           8           9
    1  -3.2747078   0.6932374  -2.6806459
    2   1.7830310   6.5196788   2.8979609
    3  -1.4718858  13.1377001  -0.3206647
 Gradient of SCF Energy
            1           2           3           4           5           6
    1   0.0000000  -0.0016505  -0.0018906   0.0018755   0.0000314   0.0008171
    2  -0.0041599  -0.0002857   0.0005365   0.0005468   0.0006712   0.0011574
    3   0.0000023  -0.0031111  -0.0034436   0.0034503   0.0025202   0.0006426
            7           8           9
    1  -0.0000199   0.0016684  -0.0008315
    2   0.0006633  -0.0002797   0.0011502
    3  -0.0025259   0.0031019  -0.0006367
 Max gradient component =       4.160E-03
 RMS gradient           =       1.848E-03
 Gradient time:  CPU 1.25 s  wall 1.25 s
 Geometry Optimization Parameters
   NAtoms,    NIC,     NZ,  NCons,   NDum,   NFix, NCnnct, MaxDiis
        9      48       0       0       0       0       0       0

 Cartesian Hessian Update
 Hessian Updated using BFGS Update


** GEOMETRY OPTIMIZATION IN DELOCALIZED INTERNAL COORDINATES **
   Searching for a Minimum

   Optimization Cycle:   3

                       Coordinates (Angstroms)
     ATOM                X               Y               Z
      1  B        -0.0000218102    0.0667963560   -0.0000904190
      2  O        -0.1649984059   -0.8242465192    1.1828323363
      3  O        -1.1504697446    0.9232511368   -0.2653361348
      4  O         1.1506136778    0.9230784514    0.2649423462
      5  H        -1.8387949119    0.3697353097   -0.5983732256
      6  H        -0.8224285211   -1.4650871783    0.9611846753
      7  H         1.8373876305    0.3700478905    0.6019540648
      8  O         0.1648138958   -0.8246958222   -1.1826663306
      9  H         0.8245351045   -1.4635285816   -0.9620135511
   Point Group: c1    Number of degrees of freedom:    21


   Energy is   -326.605626106

 Hessian Updated using BFGS Update

 20 Hessian modes will be used to form the next step
  Hessian Eigenvalues:
     0.004318    0.014283    0.014672    0.014828    0.106104    0.111406
     0.123281    0.159960    0.160000    0.189560    0.193605    0.233948
     0.319230    0.345340    0.350094    0.351882    0.491985    0.492054
     0.492315    0.537686

 Minimum Search - Taking Simple RFO Step
 Searching for Lamda that Minimizes Along All modes
 Value Taken    Lamda =  -0.00194666
 Calculated Step too Large.  Step scaled by  0.553162
 Step Taken.  Stepsize is  0.300000

                             Maximum     Tolerance    Cnvgd?
         Gradient           0.004208      0.000300      NO
         Displacement       0.281556      0.001200      NO
         Energy change     -0.000973      0.000001      NO


 New Cartesian Coordinates Obtained by Inverse Iteration

 Displacement from previous Coordinates is:  0.276535
 ----------------------------------------------------------------
             Standard Nuclear Orientation (Angstroms)
    I     Atom           X                Y                Z
 ----------------------------------------------------------------
    1      B      -0.0000114387     0.0735927027    -0.0000796035
    2      O      -0.1268620013    -0.8268032982     1.1883769129
    3      O      -1.1506942057     0.9224914939    -0.2458327684
    4      O       1.1510264854     0.9221025635     0.2454056459
    5      H      -1.8105565352     0.3909637107    -0.6617463407
    6      H      -0.7696316898    -1.4863174664     0.9784669387
    7      H       1.8089159644     0.3913542626     0.6653984042
    8      O       0.1265206434    -0.8273481472    -1.1881172321
    9      H       0.7719296923    -1.4846847785    -0.9794381956
 ----------------------------------------------------------------
 Molecular Point Group                 C1    NOp =  1
 Largest Abelian Subgroup              C1    NOp =  1
 Nuclear Repulsion Energy =   184.9430739005 hartrees
 There are       21 alpha and       21 beta electrons
 Applying Cartesian multipole field
    Component          Value
    ---------          -----
     (2,0,0)        1.00000E-11
     (0,2,0)        2.00000E-10
     (0,0,2)       -3.00000E-10
 Nucleus-field energy     =    -0.0000000063 hartrees
 Requested basis set is 6-31G(d)
 There are 28 shells and 83 basis functions
 A cutoff of  1.0D-11 yielded    400 shell pairs
 There are      3615 function pairs
 Smallest overlap matrix eigenvalue = 3.92E-03
 Guess MOs from SCF MO coefficient file
 Reading MOs from coefficient file
 Reading MOs from coefficient file
 A restricted Hartree-Fock SCF calculation will be
 performed using Pulay DIIS extrapolation
 SCF converges when DIIS error is below 1.0E-08
Geometry optimization detected.  Setting ReadMinima to 0
Setting SaveMinima to 0
 ---------------------------------------
  Cycle       Energy         DIIS Error
 ---------------------------------------
    1    -326.6043719513      1.94E-03
    2    -326.6061266542      4.45E-04
    3    -326.6064770780      1.73E-04
    4    -326.6065390322      8.67E-05
    5    -326.6065526795      2.10E-05
    6    -326.6065540791      5.40E-06
    7    -326.6065541513      1.51E-06
    8    -326.6065541538      4.19E-07
    9    -326.6065541541      1.05E-07
   10    -326.6065541541      3.47E-08
   11    -326.6065541541      7.85E-09 Convergence criterion met
 ---------------------------------------
 SCF time:  CPU 1.34 s  wall 1.35 s
 SCF   energy in the final basis set = -326.6065541541
 Total energy in the final basis set = -326.6065541541
 Analysis of SCF Wavefunction
 
 --------------------------------------------------------------
 
                    Orbital Energies (a.u.)
 --------------------------------------------------------------
 
 Alpha MOs
 -- Occupied --
-20.303 -20.303 -20.298 -20.298  -7.405  -1.136  -1.073  -1.070
 -1.061  -0.521  -0.458  -0.453  -0.391  -0.366  -0.344  -0.291
 -0.283  -0.267  -0.232  -0.224  -0.216
 -- Virtual --
  0.404   0.460   0.477   0.486   0.704   0.706   0.728   0.794
  0.942   1.002   1.006   1.022   1.233   1.301   1.309   1.349
  1.353   1.379   1.429   1.501   1.523   1.568   1.571   1.592
  1.646   1.682   1.711   1.763   1.765   1.839   1.926   1.998
  2.025   2.143   2.147   2.226   2.236   2.289   2.295   2.347
  2.352   2.418   2.436   2.449   2.783   2.800   2.904   2.916
  2.946   3.080   3.097   3.137   3.251   3.296   3.334   3.375
  3.447   4.245   4.343   4.492   4.534   4.706
 --------------------------------------------------------------
 
          Ground-State Mulliken Net Atomic Charges

     Atom                 Charge (a.u.)
  ----------------------------------------
      1 B                     0.919610
      2 O                    -0.878452
      3 O                    -0.823782
      4 O                    -0.823986
      5 H                     0.376901
      6 H                     0.365512
      7 H                     0.377009
      8 O                    -0.878284
      9 H                     0.365472
  ----------------------------------------
  Sum of atomic charges =    -1.000000

 -----------------------------------------------------------------
                    Cartesian Multipole Moments
 -----------------------------------------------------------------
    Charge (ESU x 10^10)
                -4.8032
    Dipole Moment (Debye)
         X       0.0010      Y      -3.5811      Z       0.0045
       Tot       3.5811
    Quadrupole Moments (Debye-Ang)
        XX     -27.7150     XY      -0.0031     YY     -35.0750
        XZ       1.0533     YZ       0.0024     ZZ     -38.6618
    Octopole Moments (Debye-Ang^2)
       XXX      -0.0310    XXY      -9.4860    XYY       0.0065
       YYY     -13.6239    XXZ       0.0090    XYZ       2.9010
       YYZ       0.0111    XZZ       0.0273    YZZ       5.3065
       ZZZ       0.0006
    Hexadecapole Moments (Debye-Ang^3)
      XXXX    -117.2565   XXXY      -0.0193   XXYY     -53.0533
      XYYY       0.0074   YYYY    -144.7978   XXXZ       5.5285
      XXYZ       0.0210   XYYZ      -9.3853   YYYZ      -0.0236
      XXZZ     -41.6324   XYZZ       0.0007   YYZZ     -50.8036
      XZZZ      -4.2354   YZZZ       0.0119   ZZZZ    -158.7828
 -----------------------------------------------------------------
 Calculating analytic gradient of the SCF energy
 Gradient of Coulomb and Exchange Energy
            1           2           3           4           5           6
    1  -0.0008511  -0.9649869  10.2640034 -10.2758882   3.1832456   2.5966811
    2   0.9968835   6.4505695 -11.6362983 -11.6292299   1.7053227   2.9771364
    3  -0.0017500 -13.1039017   0.7802386  -0.7593338   1.7858552   0.2756635
            7           8           9
    1  -3.1753483   0.9803085  -2.6071641
    2   1.7027927   6.4642866   2.9685368
    3  -1.8022858  13.0962182  -0.2707043
 Gradient of SCF Energy
            1           2           3           4           5           6
    1   0.0000032  -0.0014537   0.0016302  -0.0016428  -0.0006437   0.0010404
    2   0.0033166  -0.0013446  -0.0014875  -0.0014740   0.0007918   0.0003806
    3   0.0000008  -0.0023646  -0.0033970   0.0034026   0.0023441   0.0008480
            7           8           9
    1   0.0006505   0.0014653  -0.0010493
    2   0.0007827  -0.0013382   0.0003726
    3  -0.0023460   0.0023550  -0.0008429
 Max gradient component =       3.403E-03
 RMS gradient           =       1.719E-03
 Gradient time:  CPU 1.25 s  wall 1.25 s
 Geometry Optimization Parameters
   NAtoms,    NIC,     NZ,  NCons,   NDum,   NFix, NCnnct, MaxDiis
        9      48       0       0       0       0       0       0

 Cartesian Hessian Update
 Hessian Updated using BFGS Update


** GEOMETRY OPTIMIZATION IN DELOCALIZED INTERNAL COORDINATES **
   Searching for a Minimum

   Optimization Cycle:   4

                       Coordinates (Angstroms)
     ATOM                X               Y               Z
      1  B        -0.0000114387    0.0735927027   -0.0000796035
      2  O        -0.1268620013   -0.8268032982    1.1883769129
      3  O        -1.1506942057    0.9224914939   -0.2458327684
      4  O         1.1510264854    0.9221025635    0.2454056459
      5  H        -1.8105565352    0.3909637107   -0.6617463407
      6  H        -0.7696316898   -1.4863174664    0.9784669387
      7  H         1.8089159644    0.3913542626    0.6653984042
      8  O         0.1265206434   -0.8273481472   -1.1881172321
      9  H         0.7719296923   -1.4846847785   -0.9794381956
   Point Group: c1    Number of degrees of freedom:    21


   Energy is   -326.606554154

 Hessian Updated using BFGS Update

 21 Hessian modes will be used to form the next step
  Hessian Eigenvalues:
     0.002215    0.014283    0.014828    0.015574    0.106104    0.111406
     0.123678    0.160000    0.160000    0.160040    0.189569    0.197734
     0.256318    0.344328    0.345341    0.350094    0.410488    0.491985
     0.492054    0.492288    0.533536

 Minimum Search - Taking Simple RFO Step
 Searching for Lamda that Minimizes Along All modes
 Value Taken    Lamda =  -0.00191622
 Calculated Step too Large.  Step scaled by  0.451060
 Step Taken.  Stepsize is  0.300000

                             Maximum     Tolerance    Cnvgd?
         Gradient           0.003028      0.000300      NO
         Displacement       0.279616      0.001200      NO
         Energy change     -0.000928      0.000001      NO


 New Cartesian Coordinates Obtained by Inverse Iteration

 Displacement from previous Coordinates is:  0.246977
 ----------------------------------------------------------------
             Standard Nuclear Orientation (Angstroms)
    I     Atom           X                Y                Z
 ----------------------------------------------------------------
    1      B       0.0000000237     0.0748000070    -0.0000476294
    2      O      -0.0904433302    -0.8309557329     1.1931822149
    3      O      -1.1560966219     0.9163015791    -0.2229650288
    4      O       1.1566121374     0.9156956014     0.2225532447
    5      H      -1.7809765709     0.4117439545    -0.7192345550
    6      H      -0.7309147333    -1.4973400890     0.9969451125
    7      H       1.7791712469     0.4122687151     0.7228453925
    8      O       0.0899633719    -0.8315562342    -1.1928014942
    9      H       0.7333213913    -1.4956067579    -0.9980434958
 ----------------------------------------------------------------
 Molecular Point Group                 C1    NOp =  1
 Largest Abelian Subgroup              C1    NOp =  1
 Nuclear Repulsion Energy =   184.9570492564 hartrees
 There are       21 alpha and       21 beta electrons
 Applying Cartesian multipole field
    Component          Value
    ---------          -----
     (2,0,0)        1.00000E-11
     (0,2,0)        2.00000E-10
     (0,0,2)       -3.00000E-10
 Nucleus-field energy     =    -0.0000000065 hartrees
 Requested basis set is 6-31G(d)
 There are 28 shells and 83 basis functions
 A cutoff of  1.0D-11 yielded    400 shell pairs
 There are      3615 function pairs
 Smallest overlap matrix eigenvalue = 3.97E-03
 Guess MOs from SCF MO coefficient file
 Reading MOs from coefficient file
 Reading MOs from coefficient file
 A restricted Hartree-Fock SCF calculation will be
 performed using Pulay DIIS extrapolation
 SCF converges when DIIS error is below 1.0E-08
Geometry optimization detected.  Setting ReadMinima to 0
Setting SaveMinima to 0
 ---------------------------------------
  Cycle       Energy         DIIS Error
 ---------------------------------------
    1    -326.6026467266      1.85E-03
    2    -326.6069135666      4.33E-04
    3    -326.6072485935      1.59E-04
    4    -326.6073073124      7.30E-05
    5    -326.6073177767      1.91E-05
    6    -326.6073188841      4.90E-06
    7    -326.6073189409      9.78E-07
    8    -326.6073189422      3.24E-07
    9    -326.6073189424      1.09E-07
   10    -326.6073189424      3.44E-08
   11    -326.6073189424      6.90E-09 Convergence criterion met
 ---------------------------------------
 SCF time:  CPU 1.34 s  wall 1.34 s
 SCF   energy in the final basis set = -326.6073189424
 Total energy in the final basis set = -326.6073189424
 Analysis of SCF Wavefunction
 
 --------------------------------------------------------------
 
                    Orbital Energies (a.u.)
 --------------------------------------------------------------
 
 Alpha MOs
 -- Occupied --
-20.303 -20.303 -20.298 -20.298  -7.405  -1.136  -1.075  -1.070
 -1.060  -0.520  -0.458  -0.453  -0.396  -0.366  -0.338  -0.288
 -0.284  -0.269  -0.231  -0.226  -0.216
 -- Virtual --
  0.407   0.465   0.478   0.484   0.700   0.704   0.725   0.792
  0.939   1.004   1.007   1.021   1.240   1.299   1.310   1.349
  1.351   1.383   1.433   1.504   1.524   1.566   1.573   1.588
  1.646   1.686   1.692   1.759   1.766   1.835   1.929   1.975
  2.031   2.140   2.154   2.224   2.236   2.296   2.298   2.343
  2.355   2.422   2.440   2.450   2.752   2.813   2.910   2.916
  2.952   3.093   3.101   3.136   3.237   3.290   3.338   3.363
  3.451   4.247   4.345   4.473   4.538   4.706
 --------------------------------------------------------------
 
          Ground-State Mulliken Net Atomic Charges

     Atom                 Charge (a.u.)
  ----------------------------------------
      1 B                     0.925384
      2 O                    -0.884905
      3 O                    -0.824783
      4 O                    -0.825016
      5 H                     0.380335
      6 H                     0.366646
      7 H                     0.380464
      8 O                    -0.884741
      9 H                     0.366615
  ----------------------------------------
  Sum of atomic charges =    -1.000000

 -----------------------------------------------------------------
                    Cartesian Multipole Moments
 -----------------------------------------------------------------
    Charge (ESU x 10^10)
                -4.8032
    Dipole Moment (Debye)
         X       0.0009      Y      -3.4585      Z       0.0038
       Tot       3.4585
    Quadrupole Moments (Debye-Ang)
        XX     -28.3176     XY      -0.0033     YY     -34.8939
        XZ       1.3160     YZ       0.0036     ZZ     -38.2079
    Octopole Moments (Debye-Ang^2)
       XXX      -0.0379    XXY      -8.9845    XYY       0.0091
       YYY     -13.4496    XXZ       0.0049    XYZ       3.5760
       YYZ       0.0116    XZZ       0.0296    YZZ       5.6701
       ZZZ      -0.0038
    Hexadecapole Moments (Debye-Ang^3)
      XXXX    -119.7500   XXXY      -0.0210   XXYY     -53.0966
      XYYY       0.0072   YYYY    -144.2687   XXXZ       5.7341
      XXYZ       0.0214   XYYZ      -9.5709   YYYZ      -0.0228
      XXZZ     -40.6498   XYZZ      -0.0002   YYZZ     -50.3735
      XZZZ      -5.1045   YZZZ       0.0168   ZZZZ    -159.3185
 -----------------------------------------------------------------
 Calculating analytic gradient of the SCF energy
 Gradient of Coulomb and Exchange Energy
            1           2           3           4           5           6
    1  -0.0007337  -1.2932651  10.4882454 -10.5034824   3.0455259   2.5766440
    2   0.9492131   6.4422556 -11.5351409 -11.5243572   1.6071279   3.0046692
    3  -0.0017741 -13.0734536   0.1536226  -0.1325553   2.1063970   0.2273737
            7           8           9
    1  -3.0362583   1.3114941  -2.5881697
    2   1.6033994   6.4574290   2.9954039
    3  -2.1226568  13.0645164  -0.2214698
 Gradient of SCF Energy
            1           2           3           4           5           6
    1   0.0000059  -0.0010111   0.0036305  -0.0036377  -0.0011332   0.0010295
    2   0.0079795  -0.0020295  -0.0022040  -0.0021891   0.0005669  -0.0003256
    3   0.0000011  -0.0014231  -0.0030157   0.0030182   0.0018437   0.0006962
            7           8           9
    1   0.0011340   0.0010145  -0.0010324
    2   0.0005587  -0.0020242  -0.0003327
    3  -0.0018419   0.0014142  -0.0006927
 Max gradient component =       7.979E-03
 RMS gradient           =       2.322E-03
 Gradient time:  CPU 1.25 s  wall 1.25 s
 Geometry Optimization Parameters
   NAtoms,    NIC,     NZ,  NCons,   NDum,   NFix, NCnnct, MaxDiis
        9      48       0       0       0       0       0       0

 Cartesian Hessian Update
 Hessian Updated using BFGS Update


** GEOMETRY OPTIMIZATION IN DELOCALIZED INTERNAL COORDINATES **
   Searching for a Minimum

   Optimization Cycle:   5

                       Coordinates (Angstroms)
     ATOM                X               Y               Z
      1  B         0.0000000237    0.0748000070   -0.0000476294
      2  O        -0.0904433302   -0.8309557329    1.1931822149
      3  O        -1.1560966219    0.9163015791   -0.2229650288
      4  O         1.1566121374    0.9156956014    0.2225532447
      5  H        -1.7809765709    0.4117439545   -0.7192345550
      6  H        -0.7309147333   -1.4973400890    0.9969451125
      7  H         1.7791712469    0.4122687151    0.7228453925
      8  O         0.0899633719   -0.8315562342   -1.1928014942
      9  H         0.7333213913   -1.4956067579   -0.9980434958
   Point Group: c1    Number of degrees of freedom:    21


   Energy is   -326.607318942

 Hessian Updated using BFGS Update

 20 Hessian modes will be used to form the next step
  Hessian Eigenvalues:
     0.001942    0.014283    0.014828    0.016251    0.106104    0.111406
     0.124038    0.160000    0.160047    0.189699    0.197304    0.250954
     0.345340    0.347115    0.350094    0.447933    0.491985    0.492054
     0.492247    0.547000

 Minimum Search - Taking Simple RFO Step
 Searching for Lamda that Minimizes Along All modes
 Value Taken    Lamda =  -0.00171581
 Calculated Step too Large.  Step scaled by  0.460395
 Step Taken.  Stepsize is  0.300000

                             Maximum     Tolerance    Cnvgd?
         Gradient           0.004613      0.000300      NO
         Displacement       0.271843      0.001200      NO
         Energy change     -0.000765      0.000001      NO


 New Cartesian Coordinates Obtained by Inverse Iteration

 Displacement from previous Coordinates is:  0.228222
 ----------------------------------------------------------------
             Standard Nuclear Orientation (Angstroms)
    I     Atom           X                Y                Z
 ----------------------------------------------------------------
    1      B       0.0000099533     0.0699424685     0.0000008520
    2      O      -0.0567270771    -0.8361635992     1.1983965063
    3      O      -1.1641635688     0.9043109003    -0.1982253821
    4      O       1.1648416361     0.9034982463     0.1978705967
    5      H      -1.7499806805     0.4339018615    -0.7704152800
    6      H      -0.7057343162    -1.4999090763     1.0204026144
    7      H       1.7480817844     0.4345958279     0.7738904600
    8      O       0.0561345876    -0.8367876286    -1.1978741243
    9      H       0.7081745962    -1.4980379575    -1.0216124815
 ----------------------------------------------------------------
 Molecular Point Group                 C1    NOp =  1
 Largest Abelian Subgroup              C1    NOp =  1
 Nuclear Repulsion Energy =   184.9310327706 hartrees
 There are       21 alpha and       21 beta electrons
 Applying Cartesian multipole field
    Component          Value
    ---------          -----
     (2,0,0)        1.00000E-11
     (0,2,0)        2.00000E-10
     (0,0,2)       -3.00000E-10
 Nucleus-field energy     =    -0.0000000069 hartrees
 Requested basis set is 6-31G(d)
 There are 28 shells and 83 basis functions
 A cutoff of  1.0D-11 yielded    400 shell pairs
 There are      3615 function pairs
 Smallest overlap matrix eigenvalue = 4.01E-03
 Guess MOs from SCF MO coefficient file
 Reading MOs from coefficient file
 Reading MOs from coefficient file
 A restricted Hartree-Fock SCF calculation will be
 performed using Pulay DIIS extrapolation
 SCF converges when DIIS error is below 1.0E-08
Geometry optimization detected.  Setting ReadMinima to 0
Setting SaveMinima to 0
 ---------------------------------------
  Cycle       Energy         DIIS Error
 ---------------------------------------
    1    -326.6021355762      1.83E-03
    2    -326.6076041648      4.37E-04
    3    -326.6079427550      1.63E-04
    4    -326.6080007842      7.69E-05
    5    -326.6080125513      1.93E-05
    6    -326.6080136504      5.57E-06
    7    -326.6080137175      1.07E-06
    8    -326.6080137189      4.08E-07
    9    -326.6080137191      9.60E-08
   10    -326.6080137191      3.11E-08
   11    -326.6080137191      6.45E-09 Convergence criterion met
 ---------------------------------------
 SCF time:  CPU 1.34 s  wall 1.34 s
 SCF   energy in the final basis set = -326.6080137191
 Total energy in the final basis set = -326.6080137191
 Analysis of SCF Wavefunction
 
 --------------------------------------------------------------
 
                    Orbital Energies (a.u.)
 --------------------------------------------------------------
 
 Alpha MOs
 -- Occupied --
-20.303 -20.303 -20.298 -20.298  -7.405  -1.136  -1.076  -1.069
 -1.059  -0.518  -0.459  -0.452  -0.401  -0.366  -0.332  -0.286
 -0.286  -0.271  -0.230  -0.229  -0.214
 -- Virtual --
  0.410   0.469   0.479   0.481   0.695   0.705   0.723   0.792
  0.939   1.005   1.005   1.021   1.249   1.298   1.309   1.348
  1.349   1.386   1.436   1.507   1.525   1.564   1.574   1.587
  1.643   1.670   1.690   1.764   1.766   1.834   1.928   1.952
  2.040   2.138   2.164   2.215   2.235   2.299   2.311   2.339
  2.358   2.424   2.440   2.450   2.716   2.827   2.917   2.918
  2.961   3.094   3.109   3.133   3.217   3.285   3.342   3.354
  3.451   4.249   4.347   4.452   4.544   4.708
 --------------------------------------------------------------
 
          Ground-State Mulliken Net Atomic Charges

     Atom                 Charge (a.u.)
  ----------------------------------------
      1 B                     0.931399
      2 O                    -0.889552
      3 O                    -0.828022
      4 O                    -0.828268
      5 H                     0.383549
      6 H                     0.368311
      7 H                     0.383689
      8 O                    -0.889401
      9 H                     0.368296
  ----------------------------------------
  Sum of atomic charges =    -1.000000

 -----------------------------------------------------------------
                    Cartesian Multipole Moments
 -----------------------------------------------------------------
    Charge (ESU x 10^10)
                -4.8032
    Dipole Moment (Debye)
         X       0.0007      Y      -3.2966      Z       0.0028
       Tot       3.2966
    Quadrupole Moments (Debye-Ang)
        XX     -28.9519     XY      -0.0029     YY     -34.7376
        XZ       1.4887     YZ       0.0048     ZZ     -37.7086
    Octopole Moments (Debye-Ang^2)
       XXX      -0.0431    XXY      -8.4808    XYY       0.0111
       YYY     -12.6759    XXZ       0.0000    XYZ       4.3121
       YYZ       0.0115    XZZ       0.0309    YZZ       6.0991
       ZZZ      -0.0106
    Hexadecapole Moments (Debye-Ang^3)
      XXXX    -123.2632   XXXY      -0.0209   XXYY     -52.9441
      XYYY       0.0082   YYYY    -143.2876   XXXZ       5.8069
      XXYZ       0.0213   XYYZ      -9.6842   YYYZ      -0.0217
      XXZZ     -39.8694   XYZZ      -0.0008   YYZZ     -49.7974
      XZZZ      -5.8065   YZZZ       0.0222   ZZZZ    -159.8057
 -----------------------------------------------------------------
 Calculating analytic gradient of the SCF energy
 Gradient of Coulomb and Exchange Energy
            1           2           3           4           5           6
    1  -0.0003868  -1.6545801  10.7210458 -10.7390713   2.8828714   2.6049818
    2   0.8565036   6.4631056 -11.3775232 -11.3630535   1.4822344   2.9959507
    3  -0.0017090 -13.0501021  -0.4775873   0.4980190   2.4087455   0.1662955
            7           8           9
    1  -2.8726092   1.6749597  -2.6172114
    2   1.4771751   6.4796092   2.9859982
    3  -2.4242413  13.0400078  -0.1594280
 Gradient of SCF Energy
            1           2           3           4           5           6
    1   0.0000074  -0.0003974   0.0047505  -0.0047505  -0.0012943   0.0009332
    2   0.0103837  -0.0023449  -0.0022486  -0.0022344   0.0002428  -0.0008446
    3   0.0000016  -0.0001374  -0.0024557   0.0024552   0.0011757   0.0003962
            7           8           9
    1   0.0012889   0.0003916  -0.0009295
    2   0.0002372  -0.0023408  -0.0008504
    3  -0.0011716   0.0001306  -0.0003946
 Max gradient component =       1.038E-02
 RMS gradient           =       2.695E-03
 Gradient time:  CPU 1.25 s  wall 1.25 s
 Geometry Optimization Parameters
   NAtoms,    NIC,     NZ,  NCons,   NDum,   NFix, NCnnct, MaxDiis
        9      48       0       0       0       0       0       0

 Cartesian Hessian Update
 Hessian Updated using BFGS Update


** GEOMETRY OPTIMIZATION IN DELOCALIZED INTERNAL COORDINATES **
   Searching for a Minimum

   Optimization Cycle:   6

                       Coordinates (Angstroms)
     ATOM                X               Y               Z
      1  B         0.0000099533    0.0699424685    0.0000008520
      2  O        -0.0567270771   -0.8361635992    1.1983965063
      3  O        -1.1641635688    0.9043109003   -0.1982253821
      4  O         1.1648416361    0.9034982463    0.1978705967
      5  H        -1.7499806805    0.4339018615   -0.7704152800
      6  H        -0.7057343162   -1.4999090763    1.0204026144
      7  H         1.7480817844    0.4345958279    0.7738904600
      8  O         0.0561345876   -0.8367876286   -1.1978741243
      9  H         0.7081745962   -1.4980379575   -1.0216124815
   Point Group: c1    Number of degrees of freedom:    21


   Energy is   -326.608013719

 Hessian Updated using BFGS Update

 21 Hessian modes will be used to form the next step
  Hessian Eigenvalues:
     0.001964    0.014283    0.014828    0.016787    0.106104    0.111406
     0.124124    0.160000    0.160000    0.160048    0.191078    0.197033
     0.233661    0.345340    0.349528    0.350094    0.432068    0.491985
     0.492053    0.492239    0.561429

 Minimum Search - Taking Simple RFO Step
 Searching for Lamda that Minimizes Along All modes
 Value Taken    Lamda =  -0.00155771
 Calculated Step too Large.  Step scaled by  0.492248
 Step Taken.  Stepsize is  0.300000

                             Maximum     Tolerance    Cnvgd?
         Gradient           0.005569      0.000300      NO
         Displacement       0.258696      0.001200      NO
         Energy change     -0.000695      0.000001      NO


 New Cartesian Coordinates Obtained by Inverse Iteration

 Displacement from previous Coordinates is:  0.213380
 ----------------------------------------------------------------
             Standard Nuclear Orientation (Angstroms)
    I     Atom           X                Y                Z
 ----------------------------------------------------------------
    1      B       0.0000162815     0.0590809424     0.0000635499
    2      O      -0.0277445985    -0.8425471620     1.2035129979
    3      O      -1.1748273365     0.8862896636    -0.1716291284
    4      O       1.1756293214     0.8852982017     0.1713681550
    5      H      -1.7195912715     0.4573598125    -0.8132794847
    6      H      -0.6959179591    -1.4936308571     1.0489274813
    7      H       1.7176846968     0.4582434304     0.8165310630
    8      O       0.0270771945    -0.8431635409    -1.2028367597
    9      H       0.6983105864    -1.4915794474    -1.0502241127
 ----------------------------------------------------------------
 Molecular Point Group                 C1    NOp =  1
 Largest Abelian Subgroup              C1    NOp =  1
 Nuclear Repulsion Energy =   184.8800341756 hartrees
 There are       21 alpha and       21 beta electrons
 Applying Cartesian multipole field
    Component          Value
    ---------          -----
     (2,0,0)        1.00000E-11
     (0,2,0)        2.00000E-10
     (0,0,2)       -3.00000E-10
 Nucleus-field energy     =    -0.0000000075 hartrees
 Requested basis set is 6-31G(d)
 There are 28 shells and 83 basis functions
 A cutoff of  1.0D-11 yielded    400 shell pairs
 There are      3615 function pairs
 Smallest overlap matrix eigenvalue = 4.01E-03
 Guess MOs from SCF MO coefficient file
 Reading MOs from coefficient file
 Reading MOs from coefficient file
 A restricted Hartree-Fock SCF calculation will be
 performed using Pulay DIIS extrapolation
 SCF converges when DIIS error is below 1.0E-08
Geometry optimization detected.  Setting ReadMinima to 0
Setting SaveMinima to 0
 ---------------------------------------
  Cycle       Energy         DIIS Error
 ---------------------------------------
    1    -326.6019629977      1.84E-03
    2    -326.6082660012      4.51E-04
    3    -326.6086206328      1.77E-04
    4    -326.6086805712      8.61E-05
    5    -326.6086954713      2.05E-05
    6    -326.6086966839      6.39E-06
    7    -326.6086967733      1.22E-06
    8    -326.6086967751      4.56E-07
    9    -326.6086967753      8.73E-08
   10    -326.6086967753      2.73E-08
   11    -326.6086967753      6.30E-09 Convergence criterion met
 ---------------------------------------
 SCF time:  CPU 1.34 s  wall 1.34 s
 SCF   energy in the final basis set = -326.6086967753
 Total energy in the final basis set = -326.6086967753
 Analysis of SCF Wavefunction
 
 --------------------------------------------------------------
 
                    Orbital Energies (a.u.)
 --------------------------------------------------------------
 
 Alpha MOs
 -- Occupied --
-20.303 -20.303 -20.298 -20.298  -7.405  -1.136  -1.076  -1.068
 -1.059  -0.515  -0.460  -0.451  -0.405  -0.366  -0.327  -0.286
 -0.286  -0.272  -0.232  -0.230  -0.213
 -- Virtual --
  0.412   0.472   0.479   0.481   0.689   0.708   0.722   0.794
  0.940   1.000   1.005   1.021   1.257   1.297   1.309   1.346
  1.349   1.385   1.439   1.509   1.525   1.564   1.571   1.591
  1.635   1.657   1.693   1.758   1.777   1.840   1.924   1.932
  2.054   2.138   2.176   2.201   2.234   2.304   2.322   2.341
  2.361   2.423   2.436   2.448   2.680   2.840   2.917   2.924
  2.978   3.091   3.116   3.130   3.195   3.281   3.344   3.352
  3.448   4.250   4.351   4.432   4.551   4.710
 --------------------------------------------------------------
 
          Ground-State Mulliken Net Atomic Charges

     Atom                 Charge (a.u.)
  ----------------------------------------
      1 B                     0.936976
      2 O                    -0.892051
      3 O                    -0.833270
      4 O                    -0.833508
      5 H                     0.386397
      6 H                     0.370418
      7 H                     0.386535
      8 O                    -0.891924
      9 H                     0.370426
  ----------------------------------------
  Sum of atomic charges =    -1.000000

 -----------------------------------------------------------------
                    Cartesian Multipole Moments
 -----------------------------------------------------------------
    Charge (ESU x 10^10)
                -4.8032
    Dipole Moment (Debye)
         X       0.0006      Y      -3.0903      Z       0.0015
       Tot       3.0903
    Quadrupole Moments (Debye-Ang)
        XX     -29.5790     XY      -0.0018     YY     -34.6109
        XZ       1.5798     YZ       0.0058     ZZ     -37.1791
    Octopole Moments (Debye-Ang^2)
       XXX      -0.0459    XXY      -7.9667    XYY       0.0121
       YYY     -11.2664    XXZ      -0.0052    XYZ       5.0975
       YYZ       0.0111    XZZ       0.0312    YZZ       6.5720
       ZZZ      -0.0195
    Hexadecapole Moments (Debye-Ang^3)
      XXXX    -127.6054   XXXY      -0.0189   XXYY     -52.5709
      XYYY       0.0110   YYYY    -141.8975   XXXZ       5.9079
      XXYZ       0.0210   XYYZ      -9.6965   YYYZ      -0.0207
      XXZZ     -39.3064   XYZZ      -0.0011   YYZZ     -49.0905
      XZZZ      -6.2739   YZZZ       0.0278   ZZZZ    -160.1425
 -----------------------------------------------------------------
 Calculating analytic gradient of the SCF energy
 Gradient of Coulomb and Exchange Energy
            1           2           3           4           5           6
    1   0.0001193  -2.0291301  10.9529508 -10.9728727   2.7087425   2.6820650
    2   0.7039093   6.5168764 -11.1581969 -11.1404225   1.3305325   2.9496416
    3  -0.0015702 -13.0279795  -1.0946766   1.1137464   2.6815298   0.0875757
            7           8           9
    1  -2.6980073   2.0507158  -2.6945832
    2   1.3241099   6.5345890   2.9389608
    3  -2.6957396  13.0168926  -0.0797786
 Gradient of SCF Energy
            1           2           3           4           5           6
    1   0.0000073   0.0003124   0.0049267  -0.0049188  -0.0012261   0.0006755
    2   0.0108883  -0.0022690  -0.0018004  -0.0017890  -0.0001144  -0.0012649
    3   0.0000009   0.0011288  -0.0018127   0.0018087   0.0004908   0.0000276
            7           8           9
    1   0.0012156  -0.0003272  -0.0006654
    2  -0.0001166  -0.0022661  -0.0012680
    3  -0.0004848  -0.0011306  -0.0000287
 Max gradient component =       1.089E-02
 RMS gradient           =       2.726E-03
 Gradient time:  CPU 1.25 s  wall 1.25 s
 Geometry Optimization Parameters
   NAtoms,    NIC,     NZ,  NCons,   NDum,   NFix, NCnnct, MaxDiis
        9      48       0       0       0       0       0       0

 Cartesian Hessian Update
 Hessian Updated using BFGS Update


** GEOMETRY OPTIMIZATION IN DELOCALIZED INTERNAL COORDINATES **
   Searching for a Minimum

   Optimization Cycle:   7

                       Coordinates (Angstroms)
     ATOM                X               Y               Z
      1  B         0.0000162815    0.0590809424    0.0000635499
      2  O        -0.0277445985   -0.8425471620    1.2035129979
      3  O        -1.1748273365    0.8862896636   -0.1716291284
      4  O         1.1756293214    0.8852982017    0.1713681550
      5  H        -1.7195912715    0.4573598125   -0.8132794847
      6  H        -0.6959179591   -1.4936308571    1.0489274813
      7  H         1.7176846968    0.4582434304    0.8165310630
      8  O         0.0270771945   -0.8431635409   -1.2028367597
      9  H         0.6983105864   -1.4915794474   -1.0502241127
   Point Group: c1    Number of degrees of freedom:    21


   Energy is   -326.608696775

 Hessian Updated using BFGS Update

 21 Hessian modes will be used to form the next step
  Hessian Eigenvalues:
     0.001654    0.014283    0.014828    0.017160    0.106104    0.111406
     0.124234    0.160000    0.160000    0.160083    0.189999    0.193431
     0.212874    0.345340    0.350094    0.353132    0.394677    0.491985
     0.492054    0.492265    0.562729

 Minimum Search - Taking Simple RFO Step
 Searching for Lamda that Minimizes Along All modes
 Value Taken    Lamda =  -0.00167853
 Calculated Step too Large.  Step scaled by  0.473685
 Step Taken.  Stepsize is  0.300000

                             Maximum     Tolerance    Cnvgd?
         Gradient           0.005507      0.000300      NO
         Displacement       0.239544      0.001200      NO
         Energy change     -0.000683      0.000001      NO


 New Cartesian Coordinates Obtained by Inverse Iteration

 Displacement from previous Coordinates is:  0.210109
 ----------------------------------------------------------------
             Standard Nuclear Orientation (Angstroms)
    I     Atom           X                Y                Z
 ----------------------------------------------------------------
    1      B       0.0000174824     0.0419770575     0.0001360994
    2      O      -0.0052590154    -0.8501711915     1.2085186381
    3      O      -1.1873726130     0.8621251446    -0.1436345352
    4      O       1.1882372400     0.8610091120     0.1435039623
    5      H      -1.6915309175     0.4815064627    -0.8464146015
    6      H      -0.7020473657    -1.4775912752     1.0830157078
    7      H       1.6897093427     0.4825727457     0.8493621328
    8      O       0.0045735570    -0.8507483732    -1.2076955963
    9      H       0.7043092046    -1.4753286395    -1.0843580460
 ----------------------------------------------------------------
 Molecular Point Group                 C1    NOp =  1
 Largest Abelian Subgroup              C1    NOp =  1
 Nuclear Repulsion Energy =   184.8334956348 hartrees
 There are       21 alpha and       21 beta electrons
 Applying Cartesian multipole field
    Component          Value
    ---------          -----
     (2,0,0)        1.00000E-11
     (0,2,0)        2.00000E-10
     (0,0,2)       -3.00000E-10
 Nucleus-field energy     =    -0.0000000082 hartrees
 Requested basis set is 6-31G(d)
 There are 28 shells and 83 basis functions
 A cutoff of  1.0D-11 yielded    400 shell pairs
 There are      3615 function pairs
 Smallest overlap matrix eigenvalue = 3.98E-03
 Guess MOs from SCF MO coefficient file
 Reading MOs from coefficient file
 Reading MOs from coefficient file
 A restricted Hartree-Fock SCF calculation will be
 performed using Pulay DIIS extrapolation
 SCF converges when DIIS error is below 1.0E-08
Geometry optimization detected.  Setting ReadMinima to 0
Setting SaveMinima to 0
 ---------------------------------------
  Cycle       Energy         DIIS Error
 ---------------------------------------
    1    -326.6026860983      1.88E-03
    2    -326.6089691382      4.69E-04
    3    -326.6093506755      1.93E-04
    4    -326.6094154592      9.32E-05
    5    -326.6094333616      2.14E-05
    6    -326.6094346974      6.81E-06
    7    -326.6094348004      1.31E-06
    8    -326.6094348025      4.79E-07
    9    -326.6094348027      8.54E-08
   10    -326.6094348028      2.42E-08
   11    -326.6094348028      5.99E-09 Convergence criterion met
 ---------------------------------------
 SCF time:  CPU 1.34 s  wall 1.34 s
 SCF   energy in the final basis set = -326.6094348028
 Total energy in the final basis set = -326.6094348028
 Analysis of SCF Wavefunction
 
 --------------------------------------------------------------
 
                    Orbital Energies (a.u.)
 --------------------------------------------------------------
 
 Alpha MOs
 -- Occupied --
-20.304 -20.304 -20.297 -20.297  -7.406  -1.136  -1.076  -1.067
 -1.060  -0.513  -0.462  -0.449  -0.410  -0.365  -0.321  -0.287
 -0.287  -0.273  -0.234  -0.230  -0.211
 -- Virtual --
  0.415   0.473   0.478   0.483   0.685   0.710   0.721   0.797
  0.944   0.994   1.004   1.022   1.264   1.298   1.308   1.344
  1.350   1.382   1.441   1.512   1.525   1.565   1.568   1.599
  1.623   1.652   1.694   1.750   1.790   1.852   1.915   1.916
  2.069   2.139   2.182   2.192   2.234   2.308   2.319   2.357
  2.367   2.420   2.431   2.443   2.650   2.852   2.917   2.923
  3.002   3.086   3.119   3.126   3.176   3.278   3.342   3.360
  3.439   4.250   4.358   4.413   4.557   4.714
 --------------------------------------------------------------
 
          Ground-State Mulliken Net Atomic Charges

     Atom                 Charge (a.u.)
  ----------------------------------------
      1 B                     0.940942
      2 O                    -0.891982
      3 O                    -0.839953
      4 O                    -0.840164
      5 H                     0.388595
      6 H                     0.372850
      7 H                     0.388718
      8 O                    -0.891893
      9 H                     0.372887
  ----------------------------------------
  Sum of atomic charges =    -1.000000

 -----------------------------------------------------------------
                    Cartesian Multipole Moments
 -----------------------------------------------------------------
    Charge (ESU x 10^10)
                -4.8032
    Dipole Moment (Debye)
         X       0.0004      Y      -2.8360      Z       0.0001
       Tot       2.8360
    Quadrupole Moments (Debye-Ang)
        XX     -30.1525     XY      -0.0001     YY     -34.5248
        XZ       1.5978     YZ       0.0064     ZZ     -36.6390
    Octopole Moments (Debye-Ang^2)
       XXX      -0.0460    XXY      -7.4240    XYY       0.0118
       YYY      -9.1817    XXZ      -0.0102    XYZ       5.9101
       YYZ       0.0102    XZZ       0.0304    YZZ       7.0697
       ZZZ      -0.0295
    Hexadecapole Moments (Debye-Ang^3)
      XXXX    -132.4522   XXXY      -0.0149   XXYY     -51.9426
      XYYY       0.0155   YYYY    -140.1710   XXXZ       6.1736
      XXYZ       0.0204   XYYZ      -9.5772   YYYZ      -0.0203
      XXZZ     -38.9420   XYZZ      -0.0009   YYZZ     -48.3071
      XZZZ      -6.4775   YZZZ       0.0327   ZZZZ    -160.3470
 -----------------------------------------------------------------
 Calculating analytic gradient of the SCF energy
 Gradient of Coulomb and Exchange Energy
            1           2           3           4           5           6
    1   0.0007122  -2.3963725  11.1707062 -11.1912717   2.5383241   2.8039128
    2   0.4993916   6.6055684 -10.8821376 -10.8619743   1.1546293   2.8623599
    3  -0.0013073 -13.0070211  -1.6755011   1.6924845   2.9151010  -0.0128444
            7           8           9
    1  -2.5277519   2.4179373  -2.8161966
    2   1.1469935   6.6242180   2.8509513
    3  -2.9275847  12.9952497   0.0214235
 Gradient of SCF Energy
            1           2           3           4           5           6
    1   0.0000051   0.0008571   0.0043093  -0.0042949  -0.0010348   0.0003695
    2   0.0096844  -0.0018461  -0.0010337  -0.0010282  -0.0004656  -0.0015018
    3  -0.0000018   0.0020943  -0.0012433   0.0012354   0.0000050  -0.0003352
            7           8           9
    1   0.0010214  -0.0008785  -0.0003543
    2  -0.0004640  -0.0018437  -0.0015013
    3   0.0000033  -0.0020886   0.0003310
 Max gradient component =       9.684E-03
 RMS gradient           =       2.439E-03
 Gradient time:  CPU 1.25 s  wall 1.25 s
 Geometry Optimization Parameters
   NAtoms,    NIC,     NZ,  NCons,   NDum,   NFix, NCnnct, MaxDiis
        9      48       0       0       0       0       0       0

 Cartesian Hessian Update
 Hessian Updated using BFGS Update


** GEOMETRY OPTIMIZATION IN DELOCALIZED INTERNAL COORDINATES **
   Searching for a Minimum

   Optimization Cycle:   8

                       Coordinates (Angstroms)
     ATOM                X               Y               Z
      1  B         0.0000174824    0.0419770575    0.0001360994
      2  O        -0.0052590154   -0.8501711915    1.2085186381
      3  O        -1.1873726130    0.8621251446   -0.1436345352
      4  O         1.1882372400    0.8610091120    0.1435039623
      5  H        -1.6915309175    0.4815064627   -0.8464146015
      6  H        -0.7020473657   -1.4775912752    1.0830157078
      7  H         1.6897093427    0.4825727457    0.8493621328
      8  O         0.0045735570   -0.8507483732   -1.2076955963
      9  H         0.7043092046   -1.4753286395   -1.0843580460
   Point Group: c1    Number of degrees of freedom:    21


   Energy is   -326.609434803

 Hessian Updated using BFGS Update

 21 Hessian modes will be used to form the next step
  Hessian Eigenvalues:
     0.000974    0.014283    0.014828    0.016827    0.106104    0.111406
     0.123442    0.159792    0.160000    0.160000    0.166136    0.194297
     0.210631    0.345340    0.350094    0.356369    0.365153    0.491985
     0.492054    0.492314    0.556807

 Minimum Search - Taking Simple RFO Step
 Searching for Lamda that Minimizes Along All modes
 Value Taken    Lamda =  -0.00208465
 Calculated Step too Large.  Step scaled by  0.405042
 Step Taken.  Stepsize is  0.300000

                             Maximum     Tolerance    Cnvgd?
         Gradient           0.005102      0.000300      NO
         Displacement       0.217718      0.001200      NO
         Energy change     -0.000738      0.000001      NO


 New Cartesian Coordinates Obtained by Inverse Iteration

 Displacement from previous Coordinates is:  0.219729
 ----------------------------------------------------------------
             Standard Nuclear Orientation (Angstroms)
    I     Atom           X                Y                Z
 ----------------------------------------------------------------
    1      B       0.0000142874     0.0192418657     0.0002131205
    2      O       0.0103602011    -0.8594037782     1.2131973021
    3      O      -1.2004507835     0.8326805062    -0.1154722134
    4      O       1.2012971413     0.8315308989     0.1155094370
    5      H      -1.6663868794     0.5064005309    -0.8701719809
    6      H      -0.7210494205    -1.4526373537     1.1221816196
    7      H       1.6647394845     0.5076053972     0.8727466415
    8      O      -0.0109937617    -0.8599047478    -1.2122601712
    9      H       0.7231066459    -1.4501622762    -1.1235099938
 ----------------------------------------------------------------
 Molecular Point Group                 C1    NOp =  1
 Largest Abelian Subgroup              C1    NOp =  1
 Nuclear Repulsion Energy =   184.8231953817 hartrees
 There are       21 alpha and       21 beta electrons
 Applying Cartesian multipole field
    Component          Value
    ---------          -----
     (2,0,0)        1.00000E-11
     (0,2,0)        2.00000E-10
     (0,0,2)       -3.00000E-10
 Nucleus-field energy     =    -0.0000000090 hartrees
 Requested basis set is 6-31G(d)
 There are 28 shells and 83 basis functions
 A cutoff of  1.0D-11 yielded    400 shell pairs
 There are      3615 function pairs
 Smallest overlap matrix eigenvalue = 3.93E-03
 Guess MOs from SCF MO coefficient file
 Reading MOs from coefficient file
 Reading MOs from coefficient file
 A restricted Hartree-Fock SCF calculation will be
 performed using Pulay DIIS extrapolation
 SCF converges when DIIS error is below 1.0E-08
Geometry optimization detected.  Setting ReadMinima to 0
Setting SaveMinima to 0
 ---------------------------------------
  Cycle       Energy         DIIS Error
 ---------------------------------------
    1    -326.6044896992      1.93E-03
    2    -326.6097496325      4.85E-04
    3    -326.6101612315      2.04E-04
    4    -326.6102313688      9.81E-05
    5    -326.6102511455      2.18E-05
    6    -326.6102525711      6.88E-06
    7    -326.6102526753      1.40E-06
    8    -326.6102526778      4.78E-07
    9    -326.6102526780      8.76E-08
   10    -326.6102526780      2.33E-08
   11    -326.6102526780      5.65E-09 Convergence criterion met
 ---------------------------------------
 SCF time:  CPU 1.34 s  wall 1.34 s
 SCF   energy in the final basis set = -326.6102526780
 Total energy in the final basis set = -326.6102526780
 Analysis of SCF Wavefunction
 
 --------------------------------------------------------------
 
                    Orbital Energies (a.u.)
 --------------------------------------------------------------
 
 Alpha MOs
 -- Occupied --
-20.304 -20.304 -20.296 -20.296  -7.405  -1.135  -1.076  -1.065
 -1.061  -0.510  -0.463  -0.447  -0.414  -0.364  -0.316  -0.289
 -0.286  -0.273  -0.235  -0.231  -0.209
 -- Virtual --
  0.418   0.472   0.478   0.485   0.682   0.713   0.721   0.802
  0.948   0.986   1.002   1.022   1.268   1.300   1.308   1.343
  1.353   1.376   1.445   1.513   1.526   1.564   1.566   1.608
  1.613   1.650   1.695   1.744   1.803   1.868   1.899   1.905
  2.083   2.144   2.168   2.205   2.235   2.310   2.311   2.373
  2.374   2.414   2.424   2.437   2.630   2.864   2.915   2.919
  3.026   3.078   3.120   3.121   3.167   3.278   3.341   3.372
  3.426   4.251   4.368   4.397   4.563   4.717
 --------------------------------------------------------------
 
          Ground-State Mulliken Net Atomic Charges

     Atom                 Charge (a.u.)
  ----------------------------------------
      1 B                     0.942435
      2 O                    -0.889454
      3 O                    -0.847154
      4 O                    -0.847327
      5 H                     0.389973
      6 H                     0.375404
      7 H                     0.390072
      8 O                    -0.889417
      9 H                     0.375468
  ----------------------------------------
  Sum of atomic charges =    -1.000000

 -----------------------------------------------------------------
                    Cartesian Multipole Moments
 -----------------------------------------------------------------
    Charge (ESU x 10^10)
                -4.8032
    Dipole Moment (Debye)
         X       0.0003      Y      -2.5309      Z      -0.0013
       Tot       2.5309
    Quadrupole Moments (Debye-Ang)
        XX     -30.6407     XY       0.0019     YY     -34.4850
        XZ       1.5545     YZ       0.0064     ZZ     -36.1026
    Octopole Moments (Debye-Ang^2)
[...]
 Guess MOs from SCF MO coefficient file
 Reading MOs from coefficient file
 Reading MOs from coefficient file
 A restricted Hartree-Fock SCF calculation will be
 performed using Pulay DIIS extrapolation
 SCF converges when DIIS error is below 1.0E-08
Geometry optimization detected.  Setting ReadMinima to 0
Setting SaveMinima to 0
 ---------------------------------------
  Cycle       Energy         DIIS Error
 ---------------------------------------
    1    -326.6153719172      1.41E-04
    2    -326.6154743732      3.68E-05
    3    -326.6154769694      1.38E-05
    4    -326.6154774064      6.91E-06
    5    -326.6154774823      1.51E-06
    6    -326.6154774898      3.36E-07
    7    -326.6154774901      5.29E-08
    8    -326.6154774901      1.49E-08
    9    -326.6154774901      4.03E-09 Convergence criterion met
 ---------------------------------------
 SCF time:  CPU 1.10 s  wall 1.10 s
 SCF   energy in the final basis set = -326.6154774901
 Total energy in the final basis set = -326.6154774901
 Analysis of SCF Wavefunction
 
 --------------------------------------------------------------
 
                    Orbital Energies (a.u.)
 --------------------------------------------------------------
 
 Alpha MOs
 -- Occupied --
-20.299 -20.299 -20.299 -20.299  -7.402  -1.135  -1.069  -1.069
 -1.060  -0.505  -0.452  -0.452  -0.430  -0.352  -0.314  -0.288
 -0.288  -0.270  -0.237  -0.220  -0.220
 -- Virtual --
  0.430   0.475   0.475   0.485   0.701   0.701   0.726   0.824
  0.948   0.980   0.981   1.023   1.257   1.313   1.324   1.324
  1.331   1.383   1.506   1.506   1.511   1.530   1.581   1.582
  1.655   1.691   1.707   1.707   1.823   1.826   1.930   1.991
  1.991   2.159   2.160   2.222   2.225   2.283   2.339   2.344
  2.344   2.426   2.441   2.441   2.800   2.801   2.897   2.934
  2.976   3.065   3.065   3.149   3.218   3.326   3.326   3.374
  3.446   4.250   4.343   4.524   4.525   4.703
 --------------------------------------------------------------
 
          Ground-State Mulliken Net Atomic Charges

     Atom                 Charge (a.u.)
  ----------------------------------------
      1 B                     0.918624
      2 O                    -0.865130
      3 O                    -0.865380
      4 O                    -0.865354
      5 H                     0.385559
      6 H                     0.385629
      7 H                     0.385553
      8 O                    -0.865137
      9 H                     0.385636
  ----------------------------------------
  Sum of atomic charges =    -1.000000

 -----------------------------------------------------------------
                    Cartesian Multipole Moments
 -----------------------------------------------------------------
    Charge (ESU x 10^10)
                -4.8032
    Dipole Moment (Debye)
         X      -0.0008      Y       1.0297      Z      -0.0016
       Tot       1.0297
    Quadrupole Moments (Debye-Ang)
        XX     -33.7556     XY       0.0006     YY     -33.8003
        XZ       0.0011     YZ       0.0012     ZZ     -33.7577
    Octopole Moments (Debye-Ang^2)
       XXX      -0.0068    XXY       0.9879    XYY      -0.0131
       YYY      21.6206    XXZ      -0.0197    XYZ      10.9087
       YYZ      -0.0071    XZZ       0.0024    YZZ      13.4589
       ZZZ      -0.0225
    Hexadecapole Moments (Debye-Ang^3)
      XXXX    -159.5074   XXXY      -0.0111   XXYY     -43.1050
      XYYY       0.0116   YYYY    -141.7004   XXXZ       6.5074
      XXYZ       0.0044   XYYZ      -4.6506   YYYZ       0.0074
      XXZZ     -39.2982   XYZZ       0.0097   YYZZ     -48.4522
      XZZZ      -6.4546   YZZZ       0.0192   ZZZZ    -159.4548
 -----------------------------------------------------------------
 Calculating analytic gradient of the SCF energy
 Gradient of Coulomb and Exchange Energy
            1           2           3           4           5           6
    1   0.0004566  -4.0546580  12.6027988 -12.5996288   1.1238522   3.6258105
    2  -0.0017339   7.8255793  -7.8134979  -7.8218789  -1.4481525   1.4457770
    3  -0.0001238 -12.5997808  -4.0601634   4.0542176   3.6237655  -1.1231976
            7           8           9
    1  -1.1220030   4.0500179  -3.6266462
    2  -1.4477342   7.8186531   1.4429879
    3  -3.6245368  12.6054080   1.1244113
 Gradient of SCF Energy
            1           2           3           4           5           6
    1  -0.0000018  -0.0001516  -0.0000801   0.0000808   0.0000087   0.0000915
    2  -0.0001284  -0.0000638   0.0001361   0.0001304  -0.0000304   0.0000220
    3  -0.0000003  -0.0000339  -0.0000469   0.0000464   0.0000998  -0.0000103
            7           8           9
    1  -0.0000125   0.0001544  -0.0000894
    2  -0.0000297  -0.0000566   0.0000202
    3  -0.0001025   0.0000397   0.0000080
 Max gradient component =       1.544E-04
 RMS gradient           =       7.843E-05
 Gradient time:  CPU 1.25 s  wall 1.25 s
 Geometry Optimization Parameters
   NAtoms,    NIC,     NZ,  NCons,   NDum,   NFix, NCnnct, MaxDiis
        9      48       0       0       0       0       0       0

 Cartesian Hessian Update
 Hessian Updated using BFGS Update


** GEOMETRY OPTIMIZATION IN DELOCALIZED INTERNAL COORDINATES **
   Searching for a Minimum

   Optimization Cycle:  23

                       Coordinates (Angstroms)
     ATOM                X               Y               Z
      1  B         0.0000984301   -0.2141990427    0.0002849572
      2  O         0.0301449578   -1.0141783231    1.2356866448
      3  O        -1.2360074250    0.5852701711    0.0310368233
      4  O         1.2357475971    0.5859751074   -0.0298984606
      5  H        -1.3836671302    0.8604897177   -0.8612107751
      6  H        -0.8623756579   -1.2886194246    1.3831257936
      7  H         1.3830099110    0.8610045576    0.8624717732
      8  O        -0.0294915899   -1.0132765274   -1.2356972629
      9  H         0.8631778220   -1.2871151930   -1.3833657319
   Point Group: c1    Number of degrees of freedom:    21


   Energy is   -326.615477490

 Hessian Updated using BFGS Update

 21 Hessian modes will be used to form the next step
  Hessian Eigenvalues:
     0.002340    0.003469    0.014279    0.014820    0.106123    0.111421
     0.111929    0.151530    0.159989    0.160004    0.173089    0.184737
     0.271318    0.311966    0.345356    0.350123    0.433009    0.491991
     0.492058    0.493980    0.658163

 Minimum Search - Taking Simple RFO Step
 Searching for Lamda that Minimizes Along All modes
 Value Taken    Lamda =   0.00000000
 Step Taken.  Stepsize is  0.002598

                             Maximum     Tolerance    Cnvgd?
         Gradient           0.000259      0.000300     YES
         Displacement       0.001848      0.001200      NO
         Energy change     -0.000002      0.000001      NO


 New Cartesian Coordinates Obtained by Inverse Iteration

 Displacement from previous Coordinates is:  0.003722
 ----------------------------------------------------------------
             Standard Nuclear Orientation (Angstroms)
    I     Atom           X                Y                Z
 ----------------------------------------------------------------
    1      B       0.0000961363    -0.2138541652     0.0002753665
    2      O       0.0303264314    -1.0136571827     1.2359054083
    3      O      -1.2361194510     0.5851117018     0.0307685213
    4      O       1.2358222047     0.5858864019    -0.0296342591
    5      H      -1.3841367281     0.8596270196    -0.8617049353
    6      H      -0.8622092959    -1.2882842210     1.3833077752
    7      H       1.3835247715     0.8601025151     0.8629857906
    8      O      -0.0296787797    -1.0127882967    -1.2359293276
    9      H       0.8630116257    -1.2867927296    -1.3835405784
 ----------------------------------------------------------------
 Molecular Point Group                 C1    NOp =  1
 Largest Abelian Subgroup              C1    NOp =  1
 Nuclear Repulsion Energy =   185.1576810305 hartrees
 There are       21 alpha and       21 beta electrons
 Applying Cartesian multipole field
    Component          Value
    ---------          -----
     (2,0,0)        1.00000E-11
     (0,2,0)        2.00000E-10
     (0,0,2)       -3.00000E-10
 Nucleus-field energy     =    -0.0000000116 hartrees
 Requested basis set is 6-31G(d)
 There are 28 shells and 83 basis functions
 A cutoff of  1.0D-11 yielded    400 shell pairs
 There are      3615 function pairs
 Smallest overlap matrix eigenvalue = 3.92E-03
 Guess MOs from SCF MO coefficient file
 Reading MOs from coefficient file
 Reading MOs from coefficient file
 A restricted Hartree-Fock SCF calculation will be
 performed using Pulay DIIS extrapolation
 SCF converges when DIIS error is below 1.0E-08
Geometry optimization detected.  Setting ReadMinima to 0
Setting SaveMinima to 0
 ---------------------------------------
  Cycle       Energy         DIIS Error
 ---------------------------------------
    1    -326.6154284403      2.66E-05
    2    -326.6154776511      4.99E-06
    3    -326.6154776904      2.22E-06
    4    -326.6154776974      1.07E-06
    5    -326.6154776995      2.37E-07
    6    -326.6154776997      6.76E-08
    7    -326.6154776997      1.30E-08
    8    -326.6154776997      3.34E-09 Convergence criterion met
 ---------------------------------------
 SCF time:  CPU 0.99 s  wall 1.00 s
 SCF   energy in the final basis set = -326.6154776997
 Total energy in the final basis set = -326.6154776997
 Analysis of SCF Wavefunction
 
 --------------------------------------------------------------
 
                    Orbital Energies (a.u.)
 --------------------------------------------------------------
 
 Alpha MOs
 -- Occupied --
-20.299 -20.299 -20.299 -20.299  -7.402  -1.135  -1.069  -1.069
 -1.060  -0.505  -0.452  -0.452  -0.430  -0.352  -0.314  -0.288
 -0.288  -0.270  -0.237  -0.220  -0.220
 -- Virtual --
  0.430   0.475   0.475   0.485   0.701   0.701   0.726   0.824
  0.948   0.981   0.981   1.023   1.257   1.313   1.324   1.324
  1.331   1.383   1.506   1.506   1.511   1.530   1.581   1.581
  1.655   1.691   1.707   1.707   1.823   1.826   1.930   1.991
  1.991   2.159   2.159   2.222   2.225   2.283   2.339   2.344
  2.344   2.426   2.441   2.441   2.800   2.801   2.897   2.934
  2.977   3.065   3.065   3.149   3.218   3.326   3.326   3.374
  3.446   4.250   4.343   4.524   4.524   4.703
 --------------------------------------------------------------
 
          Ground-State Mulliken Net Atomic Charges

     Atom                 Charge (a.u.)
  ----------------------------------------
      1 B                     0.918592
      2 O                    -0.865217
      3 O                    -0.865258
      4 O                    -0.865245
      5 H                     0.385581
      6 H                     0.385596
      7 H                     0.385578
      8 O                    -0.865226
      9 H                     0.385599
  ----------------------------------------
  Sum of atomic charges =    -1.000000

 -----------------------------------------------------------------
                    Cartesian Multipole Moments
 -----------------------------------------------------------------
    Charge (ESU x 10^10)
                -4.8032
    Dipole Moment (Debye)
         X      -0.0006      Y       1.0274      Z      -0.0015
       Tot       1.0274
    Quadrupole Moments (Debye-Ang)
        XX     -33.7531     XY       0.0004     YY     -33.8014
        XZ       0.0021     YZ       0.0009     ZZ     -33.7579
    Octopole Moments (Debye-Ang^2)
       XXX      -0.0048    XXY       0.9853    XYY      -0.0133
       YYY      21.5927    XXZ      -0.0191    XYZ      10.9057
       YYZ      -0.0067    XZZ       0.0027    YZZ      13.4544
       ZZZ      -0.0216
    Hexadecapole Moments (Debye-Ang^3)
      XXXX    -159.5135   XXXY      -0.0123   XXYY     -43.1050
      XYYY       0.0097   YYYY    -141.6032   XXXZ       6.4989
      XXYZ       0.0043   XYYZ      -4.6601   YYYZ       0.0058
      XXZZ     -39.3010   XYZZ       0.0094   YYZZ     -48.4424
      XZZZ      -6.4737   YZZZ       0.0176   ZZZZ    -159.5116
 -----------------------------------------------------------------
 Calculating analytic gradient of the SCF energy
 Gradient of Coulomb and Exchange Energy
            1           2           3           4           5           6
    1  -0.0000614  -4.0561030  12.6047268 -12.6006919   1.1254585   3.6252873
    2  -0.0010758   7.8218215  -7.8131290  -7.8226071  -1.4451375   1.4460583
    3   0.0002060 -12.6014534  -4.0583416   4.0523103   3.6246011  -1.1226176
            7           8           9
    1  -1.1239866   4.0515031  -3.6261329
    2  -1.4443021   7.8152150   1.4431568
    3  -3.6254256  12.6070294   1.1236914
 Gradient of SCF Energy
            1           2           3           4           5           6
    1   0.0000024  -0.0000438  -0.0000171   0.0000182  -0.0000030   0.0000256
    2  -0.0000124  -0.0000133   0.0000163   0.0000165  -0.0000049   0.0000070
    3  -0.0000033   0.0000077  -0.0000066   0.0000090   0.0000240  -0.0000095
            7           8           9
    1   0.0000039   0.0000420  -0.0000281
    2  -0.0000014  -0.0000159   0.0000080
    3  -0.0000221  -0.0000097   0.0000103
 Max gradient component =       4.385E-05
 RMS gradient           =       1.784E-05
 Gradient time:  CPU 1.25 s  wall 1.25 s
 Geometry Optimization Parameters
   NAtoms,    NIC,     NZ,  NCons,   NDum,   NFix, NCnnct, MaxDiis
        9      48       0       0       0       0       0       0

 Cartesian Hessian Update
 Hessian Updated using BFGS Update


** GEOMETRY OPTIMIZATION IN DELOCALIZED INTERNAL COORDINATES **
   Searching for a Minimum

   Optimization Cycle:  24

                       Coordinates (Angstroms)
     ATOM                X               Y               Z
      1  B         0.0000961363   -0.2138541652    0.0002753665
      2  O         0.0303264314   -1.0136571827    1.2359054083
      3  O        -1.2361194510    0.5851117018    0.0307685213
      4  O         1.2358222047    0.5858864019   -0.0296342591
      5  H        -1.3841367281    0.8596270196   -0.8617049353
      6  H        -0.8622092959   -1.2882842210    1.3833077752
      7  H         1.3835247715    0.8601025151    0.8629857906
      8  O        -0.0296787797   -1.0127882967   -1.2359293276
      9  H         0.8630116257   -1.2867927296   -1.3835405784
   Point Group: c1    Number of degrees of freedom:    21


   Energy is   -326.615477700

 Hessian Updated using BFGS Update

 21 Hessian modes will be used to form the next step
  Hessian Eigenvalues:
     0.002288    0.003514    0.014279    0.014791    0.106194    0.111410
     0.113188    0.148396    0.159976    0.160031    0.174617    0.186066
     0.266626    0.297593    0.345396    0.350224    0.426653    0.492007
     0.492094    0.494281    0.597182

 Minimum Search - Taking Simple RFO Step
 Searching for Lamda that Minimizes Along All modes
 Value Taken    Lamda =   0.00000000
 Step Taken.  Stepsize is  0.001496

                             Maximum     Tolerance    Cnvgd?
         Gradient           0.000057      0.000300     YES
         Displacement       0.001213      0.001200      NO
         Energy change     -0.000000      0.000001     YES


                       Distance Matrix (Angstroms)
             B (  1)   O (  2)   O (  3)   O (  4)   H (  5)   H (  6)
   O (  2)  1.472203
   O (  3)  1.472245  2.369030
   O (  4)  1.472243  2.369251  2.472680
   H (  5)  1.952299  3.147994  0.945398  2.762510
   H (  6)  1.952114  0.945393  2.340680  3.148120  3.150558
   H (  7)  1.952313  2.341194  2.762380  0.945400  3.261059  3.151130
   O (  8)  1.472204  2.472563  2.369242  2.369051  2.341055  2.762138
   H (  9)  1.952119  2.762149  3.148118  2.340722  3.151048  3.260650
             H (  7)   O (  8)
   O (  8)  3.148064
   H (  9)  3.150710  0.945391
 
 Final energy is   -326.615477699703     


 ******************************
 **  OPTIMIZATION CONVERGED  **
 ******************************

Z-matrix Print:
$molecule
-1 1
O 
H  1 0.945391
B  1 1.472204 2 105.622427
O  3 1.472203 1 114.227301 2 79.747988 0
H  4 0.945393 3 105.622034 1 79.747167 0
O  3 1.472243 1 107.139944 2 -38.756064 0
H  6 0.945400 3 105.635284 1 161.753279 0
O  3 1.472245 1 107.152349 2 -161.757776 0
H  8 0.945398 3 105.634083 1 38.737298 0
$end

 Analysis of SCF Wavefunction
 
 --------------------------------------------------------------
 
                    Orbital Energies (a.u.)
 --------------------------------------------------------------
 
 Alpha MOs
 -- Occupied --
-20.299 -20.299 -20.299 -20.299  -7.402  -1.135  -1.069  -1.069
 -1.060  -0.505  -0.452  -0.452  -0.430  -0.352  -0.314  -0.288
 -0.288  -0.270  -0.237  -0.220  -0.220
 -- Virtual --
  0.430   0.475   0.475   0.485   0.701   0.701   0.726   0.824
  0.948   0.981   0.981   1.023   1.257   1.313   1.324   1.324
  1.331   1.383   1.506   1.506   1.511   1.530   1.581   1.581
  1.655   1.691   1.707   1.707   1.823   1.826   1.930   1.991
  1.991   2.159   2.159   2.222   2.225   2.283   2.339   2.344
  2.344   2.426   2.441   2.441   2.800   2.801   2.897   2.934
  2.977   3.065   3.065   3.149   3.218   3.326   3.326   3.374
  3.446   4.250   4.343   4.524   4.524   4.703
 --------------------------------------------------------------
 
          Ground-State Mulliken Net Atomic Charges

     Atom                 Charge (a.u.)
  ----------------------------------------
      1 B                     0.918592
      2 O                    -0.865217
      3 O                    -0.865258
      4 O                    -0.865245
      5 H                     0.385581
      6 H                     0.385596
      7 H                     0.385578
      8 O                    -0.865226
      9 H                     0.385599
  ----------------------------------------
  Sum of atomic charges =    -1.000000

 -----------------------------------------------------------------
                    Cartesian Multipole Moments
 -----------------------------------------------------------------
    Charge (ESU x 10^10)
                -4.8032
    Dipole Moment (Debye)
         X      -0.0006      Y       1.0274      Z      -0.0015
       Tot       1.0274
    Quadrupole Moments (Debye-Ang)
        XX     -33.7531     XY       0.0004     YY     -33.8014
        XZ       0.0021     YZ       0.0009     ZZ     -33.7579
    Octopole Moments (Debye-Ang^2)
       XXX      -0.0048    XXY       0.9853    XYY      -0.0133
       YYY      21.5927    XXZ      -0.0191    XYZ      10.9057
       YYZ      -0.0067    XZZ       0.0027    YZZ      13.4544
       ZZZ      -0.0216
    Hexadecapole Moments (Debye-Ang^3)
      XXXX    -159.5135   XXXY      -0.0123   XXYY     -43.1050
      XYYY       0.0097   YYYY    -141.6032   XXXZ       6.4989
      XXYZ       0.0043   XYYZ      -4.6601   YYYZ       0.0058
      XXZZ     -39.3010   XYZZ       0.0094   YYZZ     -48.4424
      XZZZ      -6.4737   YZZZ       0.0176   ZZZZ    -159.5116
 -----------------------------------------------------------------
Archival summary:
1\1\vonNeumann\OPT\HF\6-31G*\414(1-,1)\ben\ThuAug611:57:412015ThuAug611:57:412015\0\\#,OPT,HF,6-31G*,\\-1,1\O\H,1,0.945391\B,1,1.4722,2,105.622\O,3,1.4722,1,114.227,2,79.748,0\H,4,0.945393,3,105.622,1,79.7472,0\O,3,1.47224,1,107.14,2,-38.7561,0\H,6,0.9454,3,105.635,1,161.753,0\O,3,1.47224,1,107.152,2,-161.758,0\H,8,0.945398,3,105.634,1,38.7373,0\\HF=-326.615478\\@

 Total job time:  62.44s(wall), 62.31s(cpu) 
 Thu Aug  6 11:57:41 2015

        *************************************************************
        *                                                           *
        *  Thank you very much for using Q-Chem.  Have a nice day.  *
        *                                                           *
        *************************************************************


