 DBCSR| Multiplication driver                                                SMM
 DBCSR| Multrec recursion limit                                              512
 DBCSR| Multiplication stack size                                           1000
 DBCSR| Multiplication size stacks                                             3
 DBCSR| Use subcommunicators                                                   T
 DBCSR| Use MPI combined types                                                 F
 DBCSR| Use MPI memory allocation                                              T
 DBCSR| Use Communication thread                                               T
 DBCSR| Communication thread load                                             87


  **** **** ******  **  PROGRAM STARTED AT               2015-03-10 11:51:23.742
 ***** ** ***  *** **   PROGRAM STARTED ON                                  n247
 **    ****   ******    PROGRAM STARTED BY                                 bja39
 ***** **    ** ** **   PROGRAM PROCESS ID                                 82365
  **** **  *******  **  PROGRAM STARTED IN /home/dlambrecht/bja39/cp2k/hfx/hfx20

 CP2K| version string:                                          CP2K version 2.6
 CP2K| source code revision number:                                  git:9520686
 CP2K| is freely available from                             http://www.cp2k.org/
 CP2K| Program compiled at                          Fri Feb 27 09:44:54 EST 2015
 CP2K| Program compiled on                            login0a.frank.sam.pitt.edu
 CP2K| Program compiled for                                                Frank
 CP2K| Input file name                                                 hfx20.inp
 
 GLOBAL| Force Environment number                                              1
 GLOBAL| Basis set file name                                           HFX_BASIS
 GLOBAL| Geminal file name                                         BASIS_GEMINAL
 GLOBAL| Potential file name                                      GTH_POTENTIALS
 GLOBAL| MM Potential file name                                     MM_POTENTIAL
 GLOBAL| Coordinate file name                                          water.xyz
 GLOBAL| Method name                                                        CP2K
 GLOBAL| Project name                                                      WATER
 GLOBAL| Preferred FFT library                                             FFTW3
 GLOBAL| Preferred diagonalization lib.                                       SL
 GLOBAL| Run type                                                         ENERGY
 GLOBAL| All-to-all communication in single precision                          F
 GLOBAL| FFTs using library dependent lengths                                  F
 GLOBAL| Global print level                                               MEDIUM
 GLOBAL| Total number of message passing processes                            64
 GLOBAL| Number of threads for this process                                    1
 GLOBAL| This output is from process                                           0

 MEMORY| system memory details [Kb]
 MEMORY|                        rank 0           min           max       average
 MEMORY| MemTotal             32989296      32989296      32989296      32989296
 MEMORY| MemFree               4376620       4341404       8947488       6250852
 MEMORY| Buffers                  1240          1196        507076        127684
 MEMORY| Cached               26297888      21075356      26297888      23334940
 MEMORY| Slab                   979348        979348       3909084       1925382
 MEMORY| SReclaimable           409980        409980       3096144       1319328
 MEMORY| MemLikelyFree        31085728      30810156      31218884      31032804


 *** Fundamental physical constants (SI units) ***

 *** Literature: B. J. Mohr and B. N. Taylor,
 ***             CODATA recommended values of the fundamental physical
 ***             constants: 2006, Web Version 5.1
 ***             http://physics.nist.gov/constants

 Speed of light in vacuum [m/s]                             2.99792458000000E+08
 Magnetic constant or permeability of vacuum [N/A**2]       1.25663706143592E-06
 Electric constant or permittivity of vacuum [F/m]          8.85418781762039E-12
 Planck constant (h) [J*s]                                  6.62606896000000E-34
 Planck constant (h-bar) [J*s]                              1.05457162825177E-34
 Elementary charge [C]                                      1.60217648700000E-19
 Electron mass [kg]                                         9.10938215000000E-31
 Electron g factor [ ]                                     -2.00231930436220E+00
 Proton mass [kg]                                           1.67262163700000E-27
 Fine-structure constant                                    7.29735253760000E-03
 Rydberg constant [1/m]                                     1.09737315685270E+07
 Avogadro constant [1/mol]                                  6.02214179000000E+23
 Boltzmann constant [J/K]                                   1.38065040000000E-23
 Atomic mass unit [kg]                                      1.66053878200000E-27
 Bohr radius [m]                                            5.29177208590000E-11

 *** Conversion factors ***

 [u] -> [a.u.]                                              1.82288848426455E+03
 [Angstrom] -> [Bohr] = [a.u.]                              1.88972613288564E+00
 [a.u.] = [Bohr] -> [Angstrom]                              5.29177208590000E-01
 [a.u.] -> [s]                                              2.41888432650478E-17
 [a.u.] -> [fs]                                             2.41888432650478E-02
 [a.u.] -> [J]                                              4.35974393937059E-18
 [a.u.] -> [N]                                              8.23872205491840E-08
 [a.u.] -> [K]                                              3.15774647902944E+05
 [a.u.] -> [kJ/mol]                                         2.62549961709828E+03
 [a.u.] -> [kcal/mol]                                       6.27509468713739E+02
 [a.u.] -> [Pa]                                             2.94210107994716E+13
 [a.u.] -> [bar]                                            2.94210107994716E+08
 [a.u.] -> [atm]                                            2.90362800883016E+08
 [a.u.] -> [eV]                                             2.72113838565563E+01
 [a.u.] -> [Hz]                                             6.57968392072181E+15
 [a.u.] -> [1/cm] (wave numbers)                            2.19474631370540E+05
 [a.u./Bohr**2] -> [1/cm]                                   5.14048714338585E+03
 

 CELL_TOP| Volume [angstrom^3]:                                         1915.864
 CELL_TOP| Vector a [angstrom    12.420     0.000     0.000    |a| =      12.420
 CELL_TOP| Vector b [angstrom     0.000    12.420     0.000    |b| =      12.420
 CELL_TOP| Vector c [angstrom     0.000     0.000    12.420    |c| =      12.420
 CELL_TOP| Angle (b,c), alpha [degree]:                                   90.000
 CELL_TOP| Angle (a,c), beta  [degree]:                                   90.000
 CELL_TOP| Angle (a,b), gamma [degree]:                                   90.000
 CELL_TOP| Numerically orthorhombic:                                         YES
 
 GENERATE|  Preliminary Number of Bonds generated:                             0
 GENERATE|  Achieved consistency in connectivity generation.

 CELL| Volume [angstrom^3]:                                             1915.864
 CELL| Vector a [angstrom]:      12.420     0.000     0.000    |a| =      12.420
 CELL| Vector b [angstrom]:       0.000    12.420     0.000    |b| =      12.420
 CELL| Vector c [angstrom]:       0.000     0.000    12.420    |c| =      12.420
 CELL| Angle (b,c), alpha [degree]:                                       90.000
 CELL| Angle (a,c), beta  [degree]:                                       90.000
 CELL| Angle (a,b), gamma [degree]:                                       90.000
 CELL| Numerically orthorhombic:                                             YES

 CELL_REF| Volume [angstrom^3]:                                         1915.864
 CELL_REF| Vector a [angstrom    12.420     0.000     0.000    |a| =      12.420
 CELL_REF| Vector b [angstrom     0.000    12.420     0.000    |b| =      12.420
 CELL_REF| Vector c [angstrom     0.000     0.000    12.420    |c| =      12.420
 CELL_REF| Angle (b,c), alpha [degree]:                                   90.000
 CELL_REF| Angle (a,c), beta  [degree]:                                   90.000
 CELL_REF| Angle (a,b), gamma [degree]:                                   90.000
 CELL_REF| Numerically orthorhombic:                                         YES

 *******************************************************************************
 *******************************************************************************
 **                                                                           **
 **     #####                         ##              ##                      **
 **    ##   ##            ##          ##              ##                      **
 **   ##     ##                       ##            ######                    **
 **   ##     ##  ##   ##  ##   #####  ##  ##   ####   ##    #####    #####    **
 **   ##     ##  ##   ##  ##  ##      ## ##   ##      ##   ##   ##  ##   ##   **
 **   ##  ## ##  ##   ##  ##  ##      ####     ###    ##   ######   ######    **
 **    ##  ###   ##   ##  ##  ##      ## ##      ##   ##   ##       ##        **
 **     #######   #####   ##   #####  ##  ##  ####    ##    #####   ##        **
 **           ##                                                    ##        **
 **                                                                           **
 **                                                ... make the atoms dance   **
 **                                                                           **
 **            Copyright (C) by CP2K Developers Group (2000 - 2014)           **
 **                                                                           **
 *******************************************************************************

 DFT| Spin restricted Kohn-Sham (RKS) calculation                            RKS
 DFT| Multiplicity                                                             1
 DFT| Number of spin states                                                    1
 DFT| Charge                                                                   0
 DFT| Self-interaction correction (SIC)                                       NO
 DFT| Cutoffs: density                                              1.000000E-10
 DFT|          gradient                                             1.000000E-10
 DFT|          tau                                                  1.000000E-10
 DFT|          cutoff_smoothing_range                               0.000000E+00
 DFT| XC density smoothing                                                  NONE
 DFT| XC derivatives                                                          PW
 FUNCTIONAL| ROUTINE=NEW
 FUNCTIONAL| PBE:
 FUNCTIONAL| J.P.Perdew, K.Burke, M.Ernzerhof, Phys. Rev. Letter, vol. 77, n 18,
 FUNCTIONAL|  pp. 3865-3868, (1996)sx=0.800sc=1.000{spin unpolarized}
 vdW POTENTIAL|                                                   Pair Potential
 vdW POTENTIAL|          DFT-D3 (Version 3.1)
 vdW POTENTIAL|          Potential Form: S. Grimme et al, JCP 132: 154104 (2010)
 vdW POTENTIAL|          Zero Damping
 vdW POTENTIAL|          Cutoff Radius [Bohr]:                             30.24
 vdW POTENTIAL|          s6 Scaling Factor:                               1.0000
 vdW POTENTIAL|          sr6 Scaling Factor:                              1.2870
 vdW POTENTIAL|          s8 Scaling Factor:                               0.9280
 vdW POTENTIAL|          Cutoff for CN calculation:                   0.1000E-05

 QS| Method:                                                                 GPW
 QS| Density plane wave grid type                        NON-SPHERICAL FULLSPACE
 QS| Number of grid levels:                                                    4
 QS| Density cutoff [a.u.]:                                                200.0
 QS| Multi grid cutoff [a.u.]: 1) grid level                               200.0
 QS|                           2) grid level                                66.7
 QS|                           3) grid level                                22.2
 QS|                           4) grid level                                 7.4
 QS| Grid level progression factor:                                          3.0
 QS| Relative density cutoff [a.u.]:                                        20.0
 QS| Consistent realspace mapping and integration 
 QS| Interaction thresholds: eps_pgf_orb:                                1.0E-05
 QS|                         eps_filter_matrix:                          0.0E+00
 QS|                         eps_core_charge:                            1.0E-12
 QS|                         eps_rho_gspace:                             1.0E-10
 QS|                         eps_rho_rspace:                             1.0E-10
 QS|                         eps_gvg_rspace:                             1.0E-05
 QS|                         eps_ppl:                                    1.0E-02
 QS|                         eps_ppnl:                                   1.0E-07


 ATOMIC KIND INFORMATION

  1. Atomic kind: O                                     Number of atoms:      64

     Orbital Basis Set                                                  DZVP-GTH

       Number of orbital shell sets:                                           3
       Number of orbital shells:                                               5
       Number of primitive Cartesian functions:                                5
       Number of Cartesian basis functions:                                   14
       Number of spherical basis functions:                                   13
       Norm type:                                                              2

       Normalised Cartesian orbitals:

                        Set   Shell   Orbital            Exponent    Coefficient

                          1       1    2s                8.304386       0.778600
                                                         2.457948      -0.081348
                                                         0.759737      -0.597925

                          1       2    3px               8.304386      -2.634104
                                                         2.457948      -1.739269
                                                         0.759737      -0.632383
                          1       2    3py               8.304386      -2.634104
                                                         2.457948      -1.739269
                                                         0.759737      -0.632383
                          1       2    3pz               8.304386      -2.634104
                                                         2.457948      -1.739269
                                                         0.759737      -0.632383

                          2       1    2s                0.213639       0.223960

                          2       2    3px               0.213639       0.207033
                          2       2    3py               0.213639       0.207033
                          2       2    3pz               0.213639       0.207033

                          3       1    3dx2              1.185000       2.215218
                          3       1    3dxy              1.185000       3.836871
                          3       1    3dxz              1.185000       3.836871
                          3       1    3dy2              1.185000       2.215218
                          3       1    3dyz              1.185000       3.836871
                          3       1    3dz2              1.185000       2.215218

     Potential information for                                        GTH-PBE-q6

       Description:                       Goedecker-Teter-Hutter pseudopotential
                                           Goedecker et al., PRB 54, 1703 (1996)
                                          Hartwigsen et al., PRB 58, 3641 (1998)
                                                      Krack, TCA 114, 145 (2005)

       Gaussian exponent of the core charge distribution:               8.360253
       Electronic configuration (s p d ...):                               2   4

       Parameters of the local part of the GTH pseudopotential:

                          rloc        C1          C2          C3          C4
                        0.244554  -16.667215    2.487311

       Parameters of the non-local part of the GTH pseudopotential:

                   l      r(l)      h(i,j,l)

                   0    0.220956   18.337458
                   1    0.211332

  2. Atomic kind: H                                     Number of atoms:     128

     Orbital Basis Set                                                  DZVP-GTH

       Number of orbital shell sets:                                           3
       Number of orbital shells:                                               3
       Number of primitive Cartesian functions:                                5
       Number of Cartesian basis functions:                                    5
       Number of spherical basis functions:                                    5
       Norm type:                                                              2

       Normalised Cartesian orbitals:

                        Set   Shell   Orbital            Exponent    Coefficient

                          1       1    1s                8.374435      -0.191705
                                                         1.805868      -0.285532
                                                         0.485253      -0.319237

                          2       1    1s                0.165824       0.185202

                          3       1    2px               0.727000       0.956881
                          3       1    2py               0.727000       0.956881
                          3       1    2pz               0.727000       0.956881

     Potential information for                                        GTH-PBE-q1

       Description:                       Goedecker-Teter-Hutter pseudopotential
                                           Goedecker et al., PRB 54, 1703 (1996)
                                          Hartwigsen et al., PRB 58, 3641 (1998)
                                                      Krack, TCA 114, 145 (2005)

       Gaussian exponent of the core charge distribution:              12.500000
       Electronic configuration (s p d ...):                                   1

       Parameters of the local part of the GTH pseudopotential:

                          rloc        C1          C2          C3          C4
                        0.200000   -4.178900    0.724463


 MOLECULE KIND INFORMATION


 All atoms are their own molecule, skipping detailed information


 TOTAL NUMBERS AND MAXIMUM NUMBERS

  Total number of            - Atomic kinds:                                   2
                             - Atoms:                                        192
                             - Shell sets:                                   576
                             - Shells:                                       704
                             - Primitive Cartesian functions:                960
                             - Cartesian basis functions:                   1536
                             - Spherical basis functions:                   1472

  Maximum angular momentum of- Orbital basis functions:                        2
                             - Local part of the GTH pseudopotential:          2
                             - Non-local part of the GTH pseudopotential:      0


 MODULE QUICKSTEP:  ATOMIC COORDINATES IN angstrom

  Atom  Kind  Element       X           Y           Z          Z(eff)       Mass

       1     1 O    8    3.858587   -4.753318    5.509197      6.00      15.9994
       2     2 H    1    4.210995   -5.556871    5.999459      1.00       1.0079
       3     2 H    1    3.094708   -4.317266    5.913595      1.00       1.0079
       4     1 O    8   -3.546076    1.745624    4.288021      6.00      15.9994
       5     2 H    1   -3.357258    0.836994    4.152946      1.00       1.0079
       6     2 H    1   -3.608914    1.943698    5.269839      1.00       1.0079
       7     1 O    8    4.569136    2.934327   -7.099972      6.00      15.9994
       8     2 H    1    3.678596    3.229107   -6.804983      1.00       1.0079
       9     2 H    1    4.495367    2.784591   -8.045803      1.00       1.0079
      10     1 O    8   -2.573180   -0.106310   -3.414714      6.00      15.9994
      11     2 H    1   -2.038669    0.415523   -2.828965      1.00       1.0079
      12     2 H    1   -1.889161   -0.614820   -3.928063      1.00       1.0079
      13     1 O    8   -3.762503   -7.710594    5.627998      6.00      15.9994
      14     2 H    1   -4.634354   -7.419980    5.987479      1.00       1.0079
      15     2 H    1   -3.852063   -7.634849    4.660781      1.00       1.0079
      16     1 O    8   -6.713126   -0.075920    2.317684      6.00      15.9994
      17     2 H    1   -6.041585   -0.456040    3.007998      1.00       1.0079
      18     2 H    1   -6.258264    0.734307    1.958295      1.00       1.0079
      19     1 O    8    4.010954   -5.581769   -0.412691      6.00      15.9994
      20     2 H    1    3.332131   -5.616691    0.307694      1.00       1.0079
      21     2 H    1    3.905154   -4.753344   -0.836952      1.00       1.0079
      22     1 O    8   -2.669263   -3.081051   -1.225935      6.00      15.9994
      23     2 H    1   -3.248632   -2.449171   -1.738693      1.00       1.0079
      24     2 H    1   -2.191896   -2.598852   -0.576307      1.00       1.0079
      25     1 O    8    5.457624   -3.168804    3.100260      6.00      15.9994
      26     2 H    1    4.685499   -3.245800    3.622418      1.00       1.0079
      27     2 H    1    5.257937   -3.050750    2.131140      1.00       1.0079
      28     1 O    8    2.007879    3.802589   -6.644120      6.00      15.9994
      29     2 H    1    1.380904    3.070273   -6.803869      1.00       1.0079
      30     2 H    1    1.836607    4.066629   -5.709998      1.00       1.0079
      31     1 O    8    4.060883   -3.892921   -3.059677      6.00      15.9994
      32     2 H    1    3.233271   -3.720667   -3.695376      1.00       1.0079
      33     2 H    1    4.336690   -2.982510   -2.984822      1.00       1.0079
      34     1 O    8    1.977359   -1.844229    1.022567      6.00      15.9994
      35     2 H    1    1.565064   -2.471360    1.649594      1.00       1.0079
      36     2 H    1    1.619481   -1.913312    0.065695      1.00       1.0079
      37     1 O    8    0.733845   -5.743288   -5.010069      6.00      15.9994
      38     2 H    1    1.479577   -6.329923   -4.818933      1.00       1.0079
      39     2 H    1    0.449115   -5.709569   -5.947356      1.00       1.0079
      40     1 O    8   -7.516646   -8.678106   -3.237157      6.00      15.9994
      41     2 H    1   -7.873766   -9.602722   -3.081415      1.00       1.0079
      42     2 H    1   -7.132394   -8.578896   -2.346766      1.00       1.0079
      43     1 O    8    3.008996   -1.620693    5.170452      6.00      15.9994
      44     2 H    1    3.854786   -1.802286    5.686635      1.00       1.0079
      45     2 H    1    3.170083   -0.818538    4.610243      1.00       1.0079
      46     1 O    8   -0.094349    1.863471   -6.686135      6.00      15.9994
      47     2 H    1    0.238983    1.055233   -6.317038      1.00       1.0079
      48     2 H    1   -0.053460    1.737047   -7.652783      1.00       1.0079
      49     1 O    8    1.380300   -3.081547    3.659847      6.00      15.9994
      50     2 H    1    2.005275   -2.679362    4.316923      1.00       1.0079
      51     2 H    1    1.097394   -3.966638    3.981340      1.00       1.0079
      52     1 O    8   -2.327913    2.806079    2.234742      6.00      15.9994
      53     2 H    1   -1.623045    2.131523    2.186616      1.00       1.0079
      54     2 H    1   -2.760923    2.581957    3.088951      1.00       1.0079
      55     1 O    8    0.874513   -0.661119   -5.600405      6.00      15.9994
      56     2 H    1    1.720402   -0.818966   -6.109861      1.00       1.0079
      57     2 H    1    1.196412   -0.240506   -4.754906      1.00       1.0079
      58     1 O    8   -1.186646   -0.716403    0.243785      6.00      15.9994
      59     2 H    1   -1.134001    0.232571   -0.072616      1.00       1.0079
      60     2 H    1   -0.933544   -0.785478    1.201134      1.00       1.0079
      61     1 O    8   -3.886194   -9.012929   -3.131857      6.00      15.9994
      62     2 H    1   -4.498349   -8.280126   -3.216022      1.00       1.0079
      63     2 H    1   -2.918386   -8.730140   -3.122451      1.00       1.0079
      64     1 O    8    4.978441    4.557411    2.160598      6.00      15.9994
      65     2 H    1    4.574251    4.069025    1.437504      1.00       1.0079
      66     2 H    1    4.210678    4.907944    2.673609      1.00       1.0079
      67     1 O    8    4.207481    1.029475   -3.213494      6.00      15.9994
      68     2 H    1    4.625087    0.852431   -4.064867      1.00       1.0079
      69     2 H    1    4.422152    0.192039   -2.736436      1.00       1.0079
      70     1 O    8   -5.210635   -6.346370   -2.680646      6.00      15.9994
      71     2 H    1   -5.380163   -6.086183   -1.773761      1.00       1.0079
      72     2 H    1   -5.998555   -6.089431   -3.152188      1.00       1.0079
      73     1 O    8    4.827201   -2.149309    0.695756      6.00      15.9994
      74     2 H    1    5.169811   -1.384311    1.168073      1.00       1.0079
      75     2 H    1    3.873140   -2.015277    0.790152      1.00       1.0079
      76     1 O    8    2.108497    0.940656    1.696470      6.00      15.9994
      77     2 H    1    2.763570    1.510652    1.258248      1.00       1.0079
      78     2 H    1    2.313842    0.079150    1.294322      1.00       1.0079
      79     1 O    8   -5.757905   -5.093599   -0.361373      6.00      15.9994
      80     2 H    1   -6.692202   -5.443891   -0.243446      1.00       1.0079
      81     2 H    1   -5.933954   -4.185226   -0.689323      1.00       1.0079
      82     1 O    8   -4.850118    4.634751    2.632366      6.00      15.9994
      83     2 H    1   -5.818692    4.729150    2.364808      1.00       1.0079
      84     2 H    1   -4.768696    3.668506    2.248911      1.00       1.0079
      85     1 O    8    5.512389    0.852383   -5.592791      6.00      15.9994
      86     2 H    1    6.400927    1.196167   -5.345498      1.00       1.0079
      87     2 H    1    5.032627    1.457110   -6.282087      1.00       1.0079
      88     1 O    8    0.736518   -1.917695   -1.272458      6.00      15.9994
      89     2 H    1    0.436663   -2.668596   -1.845250      1.00       1.0079
      90     2 H    1   -0.028072   -1.634696   -0.732364      1.00       1.0079
      91     1 O    8    3.900594    2.622197    0.082498      6.00      15.9994
      92     2 H    1    4.660363    2.413641   -0.488502      1.00       1.0079
      93     2 H    1    3.361931    3.246591   -0.459951      1.00       1.0079
      94     1 O    8   -1.099162   -1.369341    2.949888      6.00      15.9994
      95     2 H    1   -0.335406   -2.036901    3.107502      1.00       1.0079
      96     2 H    1   -1.847346   -1.991636    3.203214      1.00       1.0079
      97     1 O    8    2.071845   -5.650168    1.362908      6.00      15.9994
      98     2 H    1    1.204362   -6.136982    1.256069      1.00       1.0079
      99     2 H    1    2.450750   -5.885909    2.255821      1.00       1.0079
     100     1 O    8   -0.628031   -3.827349   -2.846086      6.00      15.9994
     101     2 H    1   -1.558364   -3.776964   -2.581114      1.00       1.0079
     102     2 H    1   -0.511229   -4.587952   -3.398223      1.00       1.0079
     103     1 O    8   -5.291843    2.062167    1.435301      6.00      15.9994
     104     2 H    1   -4.454945    1.877605    1.901455      1.00       1.0079
     105     2 H    1   -5.133594    1.919821    0.419723      1.00       1.0079
     106     1 O    8    1.959972   -3.424563   -5.267360      6.00      15.9994
     107     2 H    1    1.322556   -4.212309   -5.038883      1.00       1.0079
     108     2 H    1    1.299929   -2.771147   -5.498678      1.00       1.0079
     109     1 O    8   -1.193321    3.936851   -3.373747      6.00      15.9994
     110     2 H    1   -1.200301    3.980365   -4.358294      1.00       1.0079
     111     2 H    1   -0.740251    4.650096   -2.940559      1.00       1.0079
     112     1 O    8   -5.424398   -5.002981    4.278463      6.00      15.9994
     113     2 H    1   -6.116403   -4.512700    3.781732      1.00       1.0079
     114     2 H    1   -4.740320   -5.349861    3.692094      1.00       1.0079
     115     1 O    8    2.973298    5.793755    3.604183      6.00      15.9994
     116     2 H    1    3.417671    6.472671    4.169501      1.00       1.0079
     117     2 H    1    2.448520    5.204109    4.225087      1.00       1.0079
     118     1 O    8   -4.051130    1.544593   -5.062650      6.00      15.9994
     119     2 H    1   -3.538710    0.797484   -4.621055      1.00       1.0079
     120     2 H    1   -4.033382    2.351849   -4.430137      1.00       1.0079
     121     1 O    8    3.484773    0.599769    4.009149      6.00      15.9994
     122     2 H    1    2.789650    0.537511    3.268667      1.00       1.0079
     123     2 H    1    4.318998    0.415332    3.439528      1.00       1.0079
     124     1 O    8   -4.620748   -1.011762    4.004895      6.00      15.9994
     125     2 H    1   -5.347759   -1.244306    4.625324      1.00       1.0079
     126     2 H    1   -4.216388   -1.884479    3.842806      1.00       1.0079
     127     1 O    8   -0.216539    1.275147    3.116717      6.00      15.9994
     128     2 H    1    0.637178    1.413680    2.728697      1.00       1.0079
     129     2 H    1   -0.389412    0.322584    3.050879      1.00       1.0079
     130     1 O    8   -1.991535    5.069708    0.600019      6.00      15.9994
     131     2 H    1   -2.337650    4.234088    1.001390      1.00       1.0079
     132     2 H    1   -2.652025    5.747116    0.850662      1.00       1.0079
     133     1 O    8   -1.307547   -1.895612   -4.954292      6.00      15.9994
     134     2 H    1   -0.870125   -2.402819   -4.256374      1.00       1.0079
     135     2 H    1   -0.594969   -1.353212   -5.453243      1.00       1.0079
     136     1 O    8   -5.137345    1.806207   -1.286768      6.00      15.9994
     137     2 H    1   -4.698159    2.459748   -1.850567      1.00       1.0079
     138     2 H    1   -5.424553    1.125693   -1.863395      1.00       1.0079
     139     1 O    8   -7.383656   -1.211987   -1.950660      6.00      15.9994
     140     2 H    1   -6.421288   -1.037143   -2.146380      1.00       1.0079
     141     2 H    1   -7.480878   -1.531048   -1.033948      1.00       1.0079
     142     1 O    8   -0.463945    1.404847   -1.722864      6.00      15.9994
     143     2 H    1   -0.786735    2.186650   -2.196230      1.00       1.0079
     144     2 H    1    0.274393    0.986416   -2.221585      1.00       1.0079
     145     1 O    8   -0.029811   -6.521092   -1.093364      6.00      15.9994
     146     2 H    1    0.002142   -5.531145   -1.122665      1.00       1.0079
     147     2 H    1   -0.803113   -6.743514   -0.464856      1.00       1.0079
     148     1 O    8    5.709094   -1.692709    6.018549      6.00      15.9994
     149     2 H    1    6.022772   -2.510238    6.419541      1.00       1.0079
     150     2 H    1    5.679350   -0.901240    6.652196      1.00       1.0079
     151     1 O    8   -2.596298   -5.768397   -4.219577      6.00      15.9994
     152     2 H    1   -2.604903   -6.707767   -4.472834      1.00       1.0079
     153     2 H    1   -3.435454   -5.564584   -3.848351      1.00       1.0079
     154     1 O    8   -4.944969   -1.408672   -3.247339      6.00      15.9994
     155     2 H    1   -4.891302   -2.221732   -3.767422      1.00       1.0079
     156     2 H    1   -3.968955   -1.096486   -3.234198      1.00       1.0079
     157     1 O    8    2.298375   -8.080949   -1.213241      6.00      15.9994
     158     2 H    1    1.300368   -8.063628   -1.114392      1.00       1.0079
     159     2 H    1    2.516194   -7.105367   -1.176852      1.00       1.0079
     160     1 O    8    6.775436   -3.896533   -5.335926      6.00      15.9994
     161     2 H    1    7.549942   -4.100300   -5.821362      1.00       1.0079
     162     2 H    1    6.043016   -4.432815   -5.647961      1.00       1.0079
     163     1 O    8   -0.342484    4.965811    2.950829      6.00      15.9994
     164     2 H    1   -0.641824    4.167256    3.471638      1.00       1.0079
     165     2 H    1   -0.675974    4.869938    2.055138      1.00       1.0079
     166     1 O    8   -2.805629   -4.004823    6.223906      6.00      15.9994
     167     2 H    1   -2.385060   -4.632289    6.845556      1.00       1.0079
     168     2 H    1   -2.379735   -3.149823    6.433016      1.00       1.0079
     169     1 O    8   -2.792511   -3.473224    3.461233      6.00      15.9994
     170     2 H    1   -3.112954   -3.862064    4.274613      1.00       1.0079
     171     2 H    1   -3.285609   -4.027145    2.827441      1.00       1.0079
     172     1 O    8    2.486771    4.680362   -3.951121      6.00      15.9994
     173     2 H    1    3.397137    4.508164   -3.629816      1.00       1.0079
     174     2 H    1    1.979071    4.624068   -3.115244      1.00       1.0079
     175     1 O    8    1.659077    0.052314   -3.106919      6.00      15.9994
     176     2 H    1    1.511356   -0.599677   -2.356369      1.00       1.0079
     177     2 H    1    2.506872    0.526419   -3.066152      1.00       1.0079
     178     1 O    8   -1.202305   -8.160348   -6.367070      6.00      15.9994
     179     2 H    1   -0.905516   -9.069055   -6.570527      1.00       1.0079
     180     2 H    1   -2.179810   -8.074002   -6.546491      1.00       1.0079
     181     1 O    8   -0.476107    8.385162    0.598747      6.00      15.9994
     182     2 H    1    0.363244    8.309655    1.105835      1.00       1.0079
     183     2 H    1   -1.285239    8.075385    1.058726      1.00       1.0079
     184     1 O    8    5.906545   -6.798977   -6.600440      6.00      15.9994
     185     2 H    1    5.413015   -7.623317   -6.913788      1.00       1.0079
     186     2 H    1    6.217751   -6.234454   -7.319872      1.00       1.0079
     187     1 O    8   -0.359433   -5.262244    4.670430      6.00      15.9994
     188     2 H    1   -0.415613   -6.098882    4.136748      1.00       1.0079
     189     2 H    1   -1.293113   -5.154797    4.949758      1.00       1.0079
     190     1 O    8   -3.827313   -5.527924    1.763366      6.00      15.9994
     191     2 H    1   -4.138854   -6.362200    2.151380      1.00       1.0079
     192     2 H    1   -4.395567   -5.321694    1.040595      1.00       1.0079




 SCF PARAMETERS         Density guess:                                   RESTART
                        --------------------------------------------------------
                        max_scf:                                              30
                        max_scf_history:                                       0
                        max_diis:                                              4
                        --------------------------------------------------------
                        eps_scf:                                        1.00E-06
                        eps_scf_history:                                0.00E+00
                        eps_diis:                                       1.00E-01
                        eps_eigval:                                     1.00E-05
                        --------------------------------------------------------
                        level_shift [a.u.]:                                 0.00
                        --------------------------------------------------------
                        Outer loop SCF in use 
                        No variables optimised in outer loop
                        eps_scf                                         1.00E-06
                        max_scf                                               10
                        No outer loop optimization
                        step_size                                       5.00E-01

 PW_GRID| Information for grid number                                          1
 PW_GRID| Grid distributed over                                    64 processors
 PW_GRID| Real space group dimensions                                    64    1
 PW_GRID| the grid is blocked:                                                NO
 PW_GRID| Cutoff [a.u.]                                                    200.0
 PW_GRID| spherical cutoff:                                                   NO
 PW_GRID|   Bounds   1            -75      74                Points:         150
 PW_GRID|   Bounds   2            -75      74                Points:         150
 PW_GRID|   Bounds   3            -75      74                Points:         150
 PW_GRID| Volume element (a.u.^3)  0.3831E-02     Volume (a.u.^3)     12928.8946
 PW_GRID| Grid span                                                    FULLSPACE
 PW_GRID|   Distribution                         Average         Max         Min
 PW_GRID|   G-Vectors                            52734.4       52800       52650
 PW_GRID|   G-Rays                                 351.6         352         351
 PW_GRID|   Real Space Points                    52734.4       67500       45000

 PW_GRID| Information for grid number                                          2
 PW_GRID| Grid distributed over                                    64 processors
 PW_GRID| Real space group dimensions                                    64    1
 PW_GRID| the grid is blocked:                                                NO
 PW_GRID| Cutoff [a.u.]                                                     66.7
 PW_GRID| spherical cutoff:                                                   NO
 PW_GRID|   Bounds   1            -45      44                Points:          90
 PW_GRID|   Bounds   2            -45      44                Points:          90
 PW_GRID|   Bounds   3            -45      44                Points:          90
 PW_GRID| Volume element (a.u.^3)  0.1774E-01     Volume (a.u.^3)     12928.8946
 PW_GRID| Grid span                                                    FULLSPACE
 PW_GRID|   Distribution                         Average         Max         Min
 PW_GRID|   G-Vectors                            11390.6       11430       11340
 PW_GRID|   G-Rays                                 126.6         127         126
 PW_GRID|   Real Space Points                    11390.6       16200        8100

 PW_GRID| Information for grid number                                          3
 PW_GRID| Grid distributed over                                    64 processors
 PW_GRID| Real space group dimensions                                     8    8
 PW_GRID| the grid is blocked:                                                NO
 PW_GRID| Cutoff [a.u.]                                                     22.2
 PW_GRID| spherical cutoff:                                                   NO
 PW_GRID|   Bounds   1            -27      26                Points:          54
 PW_GRID|   Bounds   2            -27      26                Points:          54
 PW_GRID|   Bounds   3            -27      26                Points:          54
 PW_GRID| Volume element (a.u.^3)  0.8211E-01     Volume (a.u.^3)     12928.8946
 PW_GRID| Grid span                                                    FULLSPACE
 PW_GRID|   Distribution                         Average         Max         Min
 PW_GRID|   G-Vectors                             2460.4        2592        2322
 PW_GRID|   G-Rays                                  45.6          48          43
 PW_GRID|   Real Space Points                     2460.4        2646        1944

 PW_GRID| Information for grid number                                          4
 PW_GRID| Grid distributed over                                    64 processors
 PW_GRID| Real space group dimensions                                     8    8
 PW_GRID| the grid is blocked:                                                NO
 PW_GRID| Cutoff [a.u.]                                                      7.4
 PW_GRID| spherical cutoff:                                                   NO
 PW_GRID|   Bounds   1            -15      14                Points:          30
 PW_GRID|   Bounds   2            -15      14                Points:          30
 PW_GRID|   Bounds   3            -15      14                Points:          30
 PW_GRID| Volume element (a.u.^3)  0.4788         Volume (a.u.^3)     12928.8946
 PW_GRID| Grid span                                                    FULLSPACE
 PW_GRID|   Distribution                         Average         Max         Min
 PW_GRID|   G-Vectors                              421.9         480         390
 PW_GRID|   G-Rays                                  14.1          16          13
 PW_GRID|   Real Space Points                      421.9         480         270

 POISSON| Solver                                                        PERIODIC
 POISSON| Periodicity                                                        XYZ

 RS_GRID| Information for grid number                                          1
 RS_GRID|   Bounds   1            -75      74                Points:         150
 RS_GRID|   Bounds   2            -75      74                Points:         150
 RS_GRID|   Bounds   3            -75      74                Points:         150
 RS_GRID| Real space distribution over                                  4 groups
 RS_GRID| Real space distribution along direction                              1
 RS_GRID| Border size                                                         19
 RS_GRID| Real space distribution over                                  4 groups
 RS_GRID| Real space distribution along direction                              2
 RS_GRID| Border size                                                         19
 RS_GRID| Real space distribution over                                  4 groups
 RS_GRID| Real space distribution along direction                              3
 RS_GRID| Border size                                                         19
 RS_GRID|   Distribution                         Average         Max         Min
 RS_GRID|   Planes                                  75.5          76          75
 RS_GRID|   Distribution                         Average         Max         Min
 RS_GRID|   Planes                                  75.5          76          75
 RS_GRID|   Distribution                         Average         Max         Min
 RS_GRID|   Planes                                  75.5          76          75

 RS_GRID| Information for grid number                                          2
 RS_GRID|   Bounds   1            -45      44                Points:          90
 RS_GRID|   Bounds   2            -45      44                Points:          90
 RS_GRID|   Bounds   3            -45      44                Points:          90
 RS_GRID| Real space distribution over                                  4 groups
 RS_GRID| Real space distribution along direction                              1
 RS_GRID| Border size                                                         20
 RS_GRID| Real space distribution over                                  4 groups
 RS_GRID| Real space distribution along direction                              2
 RS_GRID| Border size                                                         20
 RS_GRID| Real space distribution over                                  4 groups
 RS_GRID| Real space distribution along direction                              3
 RS_GRID| Border size                                                         20
 RS_GRID|   Distribution                         Average         Max         Min
 RS_GRID|   Planes                                  62.5          63          62
 RS_GRID|   Distribution                         Average         Max         Min
 RS_GRID|   Planes                                  62.5          63          62
 RS_GRID|   Distribution                         Average         Max         Min
 RS_GRID|   Planes                                  62.5          63          62

 RS_GRID| Information for grid number                                          3
 RS_GRID|   Bounds   1            -27      26                Points:          54
 RS_GRID|   Bounds   2            -27      26                Points:          54
 RS_GRID|   Bounds   3            -27      26                Points:          54
 RS_GRID| Real space fully replicated
 RS_GRID| Group size                                                           1

 RS_GRID| Information for grid number                                          4
 RS_GRID|   Bounds   1            -15      14                Points:          30
 RS_GRID|   Bounds   2            -15      14                Points:          30
 RS_GRID|   Bounds   3            -15      14                Points:          30
 RS_GRID| Real space fully replicated
 RS_GRID| Group size                                                           1

 DISTRIBUTION OF THE PARTICLES (ROWS)
              Process row      Number of particles         Number of matrix rows
                        0                       24                            -1
                        1                       24                            -1
                        2                       24                            -1
                        3                       24                            -1
                        4                       24                            -1
                        5                       24                            -1
                        6                       24                            -1
                        7                       24                            -1
                      Sum                      192                            -1

 DISTRIBUTION OF THE PARTICLES (COLUMNS)
              Process col      Number of particles      Number of matrix columns
                        0                       24                            -1
                        1                       24                            -1
                        2                       24                            -1
                        3                       24                            -1
                        4                       24                            -1
                        5                       24                            -1
                        6                       24                            -1
                        7                       24                            -1
                      Sum                      192                            -1

  HFX_INFO| Replica ID:                                                        1
  HFX_INFO| EPS_SCHWARZ:                                                 1.0E-06
  HFX_INFO| EPS_SCHWARZ_FORCES                                           1.0E-06
  HFX_INFO| EPS_STORAGE_SCALING:                                         1.0E-01
  HFX_INFO| NBINS:                                                            64
  HFX_INFO| BLOCK_SIZE:                                                        3
  HFX_INFO| FRACTION:                                               0.2000000000
  HFX_INFO| Interaction Potential:                                     TRUNCATED
  HFX_INFO| Cutoff Radius [angstrom]:                               6.0000000000
  HFX_INFO| NUMBER_OF_SHELLS:                                               AUTO
  HFX_INFO| Number of periodic shells considered:                             -1
  HFX_INFO| Number of periodic cells considered:                              27


 DISTRIBUTION OF THE NEIGHBOR LISTS
              Total number of particle pairs:                              21379
              Total number of matrix elements:                           1231147
              Average number of particle pairs:                              335
              Maximum number of particle pairs:                              370
              Average number of matrix element:                            19237
              Maximum number of matrix elements:                           21624


 DISTRIBUTION OF THE OVERLAP MATRIX
              Number  of non-zero blocks:                                  16652
              Percentage non-zero blocks:                                  89.87
              Average number of blocks per CPU:                              261
              Maximum number of blocks per CPU:                              279
              Average number of matrix elements per CPU:                   15194
              Maximum number of matrix elements per CPU:                   16625

 Number of electrons:                                                        512
 Number of occupied orbitals:                                                256
 Number of molecular orbitals:                                               256

 Number of orbital functions:                                               1472
 Number of independent orbital functions:                                   1472

 Extrapolation method: initial_guess


 SCF WAVEFUNCTION OPTIMIZATION

  ----------------------------------- OT ---------------------------------------

  Allowing for rotations:  F
  Optimizing orbital energies:  F
  Minimizer      : DIIS                : direct inversion
                                         in the iterative subspace
                            using      : -   7 DIIS vectors
                                         - safer DIIS on
  Preconditioner : FULL_SINGLE_INVERSE : inversion of H + eS - 2*(Sc)(c^T*H*c+const)(Sc)^T
  Precond_solver : DEFAULT
  stepsize       :    0.08000000
  energy_gap     :    0.08000000

  eps_taylor     :   0.10000E-15
  max_taylor     :             4

  mixed_precision    : F

  ----------------------------------- OT ---------------------------------------

  Step     Update method      Time    Convergence         Total energy    Change
  ------------------------------------------------------------------------------

  Trace(PS):                                  512.0000000000
  Electronic density on regular grids:       -511.9999999886        0.0000000114
  Core density on regular grids:              511.9999999836       -0.0000000164
  Total charge density on r-space grids:       -0.0000000051
  Total charge density g-space grids:          -0.0000000051


  HFX_MEM_INFO| Est. max. program size before HFX [MB's]:                    150

 *** 11:51:53 WARNING in hfx_energy_potential:integrate_four_center :: The ***
 *** Kohn Sham matrix is not 100% occupied. This may result in uncorrect   ***
 *** Hartree-Fock results. Try to decrease EPS_PGF_ORB and                 ***
 *** EPS_FILTER_MATRIX in the QS section.                                  ***

  HFX_MEM_INFO| Number of cart. primitive ERI's calculated:          16458548610
  HFX_MEM_INFO| Number of sph. ERI's calculated:                      3558364134
  HFX_MEM_INFO| Number of sph. ERI's stored in-core:                  1212425788
  HFX_MEM_INFO| Number of sph. ERI's stored on disk:                           0
  HFX_MEM_INFO| Number of sph. ERI's calculated on the fly:                    0
  HFX_MEM_INFO| Total memory consumption ERI's RAM [MB's]:                  1167
  HFX_MEM_INFO| Whereof max-vals [MB's]:                                      64
  HFX_MEM_INFO| Total compression factor ERI's RAM:                         7.93
  HFX_MEM_INFO| Total memory consumption ERI's disk [MB's]:                    0
  HFX_MEM_INFO| Total compression factor ERI's disk:                        0.00
  HFX_MEM_INFO| Size of density/Fock matrix [MB's]:                           14
  HFX_MEM_INFO| Size of buffers [MB's]:                                        2
  HFX_MEM_INFO| Number of periodic image cells considered:                    27
  HFX_MEM_INFO| Est. max. program size after HFX  [MB's]:                    190

     1 OT DIIS     0.80E-01   23.9     0.00061967     -1102.2493875860 -1.10E+03

  Trace(PS):                                  512.0000000000
  Electronic density on regular grids:       -511.9999999887        0.0000000113
  Core density on regular grids:              511.9999999836       -0.0000000164
  Total charge density on r-space grids:       -0.0000000051
  Total charge density g-space grids:          -0.0000000051

     2 OT DIIS     0.80E-01    5.9     0.00039315     -1102.2588280206 -9.44E-03

  Trace(PS):                                  512.0000000000
  Electronic density on regular grids:       -511.9999999887        0.0000000113
  Core density on regular grids:              511.9999999836       -0.0000000164
  Total charge density on r-space grids:       -0.0000000051
  Total charge density g-space grids:          -0.0000000051

     3 OT DIIS     0.80E-01    6.3     0.00006310     -1102.2653390801 -6.51E-03

  Trace(PS):                                  512.0000000000
  Electronic density on regular grids:       -511.9999999887        0.0000000113
  Core density on regular grids:              511.9999999836       -0.0000000164
  Total charge density on r-space grids:       -0.0000000051
  Total charge density g-space grids:          -0.0000000051

     4 OT DIIS     0.80E-01    6.8     0.00001626     -1102.2654998577 -1.61E-04

  Trace(PS):                                  512.0000000000
  Electronic density on regular grids:       -511.9999999887        0.0000000113
  Core density on regular grids:              511.9999999836       -0.0000000164
  Total charge density on r-space grids:       -0.0000000051
  Total charge density g-space grids:          -0.0000000051

     5 OT DIIS     0.80E-01    7.0     0.00000417     -1102.2655105687 -1.07E-05

  Trace(PS):                                  512.0000000000
  Electronic density on regular grids:       -511.9999999887        0.0000000113
  Core density on regular grids:              511.9999999836       -0.0000000164
  Total charge density on r-space grids:       -0.0000000051
  Total charge density g-space grids:          -0.0000000051

     6 OT DIIS     0.80E-01    6.5     0.00000162     -1102.2655112200 -6.51E-07

  Trace(PS):                                  512.0000000000
  Electronic density on regular grids:       -511.9999999887        0.0000000113
  Core density on regular grids:              511.9999999836       -0.0000000164
  Total charge density on r-space grids:       -0.0000000051
  Total charge density g-space grids:          -0.0000000051

     7 OT DIIS     0.80E-01    7.0     0.00000052     -1102.2655113246 -1.05E-07

  *** SCF run converged in     7 steps ***


  Electronic density on regular grids:       -511.9999999887        0.0000000113
  Core density on regular grids:              511.9999999836       -0.0000000164
  Total charge density on r-space grids:       -0.0000000051
  Total charge density g-space grids:          -0.0000000051

  Overlap energy of the core charge distribution:               0.00000237129466
  Self energy of the core charge distribution:              -2838.21791979121008
  Core Hamiltonian energy:                                    829.43226177530573
  Hartree energy:                                            1178.54670910698951
  Exchange-correlation energy:                               -221.43163901049451
  Hartree-Fock Exchange energy:                               -50.34855878834284
  Dispersion energy:                                           -0.24636698815184

  Total energy:                                             -1102.26551132460941

  outer SCF iter =    1 RMS gradient =   0.52E-06 energy =      -1102.2655113246
  outer SCF loop converged in   1 iterations or    7 steps



 MULLIKEN POPULATION ANALYSIS

 #  Atom  Element  Kind  Atomic population                Net charge
       1     O        1          6.529594                 -0.529594
       2     H        2          0.748864                  0.251136
       3     H        2          0.723934                  0.276066
       4     O        1          6.516761                 -0.516761
       5     H        2          0.753724                  0.246276
       6     H        2          0.698563                  0.301437
       7     O        1          6.499435                 -0.499435
       8     H        2          0.722630                  0.277370
       9     H        2          0.760384                  0.239616
      10     O        1          6.507585                 -0.507585
      11     H        2          0.775821                  0.224179
      12     H        2          0.752853                  0.247147
      13     O        1          6.519762                 -0.519762
      14     H        2          0.740188                  0.259812
      15     H        2          0.744090                  0.255910
      16     O        1          6.613414                 -0.613414
      17     H        2          0.695536                  0.304464
      18     H        2          0.704642                  0.295358
      19     O        1          6.515973                 -0.515973
      20     H        2          0.707099                  0.292901
      21     H        2          0.769843                  0.230157
      22     O        1          6.481321                 -0.481321
      23     H        2          0.781667                  0.218333
      24     H        2          0.737448                  0.262552
      25     O        1          6.511555                 -0.511555
      26     H        2          0.758741                  0.241259
      27     H        2          0.727567                  0.272433
      28     O        1          6.526923                 -0.526923
      29     H        2          0.756335                  0.243665
      30     H        2          0.726452                  0.273548
      31     O        1          6.509474                 -0.509474
      32     H        2          0.743582                  0.256418
      33     H        2          0.774559                  0.225441
      34     O        1          6.616516                 -0.616516
      35     H        2          0.711196                  0.288804
      36     H        2          0.683972                  0.316028
      37     O        1          6.521590                 -0.521590
      38     H        2          0.730842                  0.269158
      39     H        2          0.723295                  0.276705
      40     O        1          6.458887                 -0.458887
      41     H        2          0.737352                  0.262648
      42     H        2          0.797826                  0.202174
      43     O        1          6.589166                 -0.589166
      44     H        2          0.706898                  0.293102
      45     H        2          0.737503                  0.262497
      46     O        1          6.503031                 -0.503031
      47     H        2          0.777182                  0.222818
      48     H        2          0.727877                  0.272123
      49     O        1          6.571180                 -0.571180
      50     H        2          0.706903                  0.293097
      51     H        2          0.733555                  0.266445
      52     O        1          6.541677                 -0.541677
      53     H        2          0.753620                  0.246380
      54     H        2          0.731891                  0.268109
      55     O        1          6.571728                 -0.571728
      56     H        2          0.729443                  0.270557
      57     H        2          0.695504                  0.304496
      58     O        1          6.549528                 -0.549528
      59     H        2          0.725173                  0.274827
      60     H        2          0.720732                  0.279268
      61     O        1          6.574218                 -0.574218
      62     H        2          0.711885                  0.288115
      63     H        2          0.692486                  0.307514
      64     O        1          6.516012                 -0.516012
      65     H        2          0.761541                  0.238459
      66     H        2          0.739904                  0.260096
      67     O        1          6.546668                 -0.546668
      68     H        2          0.735506                  0.264494
      69     H        2          0.731389                  0.268611
      70     O        1          6.495612                 -0.495612
      71     H        2          0.750857                  0.249143
      72     H        2          0.763447                  0.236553
      73     O        1          6.509753                 -0.509753
      74     H        2          0.730945                  0.269055
      75     H        2          0.742649                  0.257351
      76     O        1          6.495834                 -0.495834
      77     H        2          0.728324                  0.271676
      78     H        2          0.750293                  0.249707
      79     O        1          6.527795                 -0.527795
      80     H        2          0.705826                  0.294174
      81     H        2          0.756311                  0.243689
      82     O        1          6.592190                 -0.592190
      83     H        2          0.690481                  0.309519
      84     H        2          0.721593                  0.278407
      85     O        1          6.614656                 -0.614656
      86     H        2          0.709958                  0.290042
      87     H        2          0.657321                  0.342679
      88     O        1          6.565567                 -0.565567
      89     H        2          0.687406                  0.312594
      90     H        2          0.716313                  0.283687
      91     O        1          6.517470                 -0.517470
      92     H        2          0.772202                  0.227798
      93     H        2          0.703128                  0.296872
      94     O        1          6.569715                 -0.569715
      95     H        2          0.724814                  0.275186
      96     H        2          0.701031                  0.298969
      97     O        1          6.563036                 -0.563036
      98     H        2          0.748946                  0.251054
      99     H        2          0.682422                  0.317578
     100     O        1          6.506224                 -0.506224
     101     H        2          0.734870                  0.265130
     102     H        2          0.730054                  0.269946
     103     O        1          6.546654                 -0.546654
     104     H        2          0.754452                  0.245548
     105     H        2          0.671235                  0.328765
     106     O        1          6.514887                 -0.514887
     107     H        2          0.745317                  0.254683
     108     H        2          0.785406                  0.214594
     109     O        1          6.543635                 -0.543635
     110     H        2          0.723697                  0.276303
     111     H        2          0.725562                  0.274438
     112     O        1          6.521912                 -0.521912
     113     H        2          0.723877                  0.276123
     114     H        2          0.774520                  0.225480
     115     O        1          6.571368                 -0.571368
     116     H        2          0.726455                  0.273545
     117     H        2          0.696430                  0.303570
     118     O        1          6.604447                 -0.604447
     119     H        2          0.717685                  0.282315
     120     H        2          0.707424                  0.292576
     121     O        1          6.521537                 -0.521537
     122     H        2          0.759435                  0.240565
     123     H        2          0.725500                  0.274500
     124     O        1          6.500192                 -0.500192
     125     H        2          0.728614                  0.271386
     126     H        2          0.774170                  0.225830
     127     O        1          6.528587                 -0.528587
     128     H        2          0.720140                  0.279860
     129     H        2          0.716979                  0.283021
     130     O        1          6.537602                 -0.537602
     131     H        2          0.724269                  0.275731
     132     H        2          0.746469                  0.253531
     133     O        1          6.562630                 -0.562630
     134     H        2          0.759733                  0.240267
     135     H        2          0.667520                  0.332480
     136     O        1          6.498213                 -0.498213
     137     H        2          0.721494                  0.278506
     138     H        2          0.781357                  0.218643
     139     O        1          6.552137                 -0.552137
     140     H        2          0.716523                  0.283477
     141     H        2          0.735891                  0.264109
     142     O        1          6.519829                 -0.519829
     143     H        2          0.743766                  0.256234
     144     H        2          0.746804                  0.253196
     145     O        1          6.582113                 -0.582113
     146     H        2          0.729887                  0.270113
     147     H        2          0.688683                  0.311317
     148     O        1          6.567905                 -0.567905
     149     H        2          0.743580                  0.256420
     150     H        2          0.707099                  0.292901
     151     O        1          6.477777                 -0.477777
     152     H        2          0.765898                  0.234102
     153     H        2          0.749463                  0.250537
     154     O        1          6.526724                 -0.526724
     155     H        2          0.755836                  0.244164
     156     H        2          0.712565                  0.287435
     157     O        1          6.516955                 -0.516955
     158     H        2          0.726203                  0.273797
     159     H        2          0.732491                  0.267509
     160     O        1          6.475814                 -0.475814
     161     H        2          0.727550                  0.272450
     162     H        2          0.754546                  0.245454
     163     O        1          6.509118                 -0.509118
     164     H        2          0.752477                  0.247523
     165     H        2          0.762358                  0.237642
     166     O        1          6.534066                 -0.534066
     167     H        2          0.744322                  0.255678
     168     H        2          0.728275                  0.271725
     169     O        1          6.487931                 -0.487931
     170     H        2          0.747576                  0.252424
     171     H        2          0.746669                  0.253331
     172     O        1          6.530703                 -0.530703
     173     H        2          0.724960                  0.275040
     174     H        2          0.772950                  0.227050
     175     O        1          6.586202                 -0.586202
     176     H        2          0.701092                  0.298908
     177     H        2          0.710342                  0.289658
     178     O        1          6.560984                 -0.560984
     179     H        2          0.724065                  0.275935
     180     H        2          0.712378                  0.287622
     181     O        1          6.507949                 -0.507949
     182     H        2          0.751072                  0.248928
     183     H        2          0.748582                  0.251418
     184     O        1          6.551002                 -0.551002
     185     H        2          0.728752                  0.271248
     186     H        2          0.737369                  0.262631
     187     O        1          6.517379                 -0.517379
     188     H        2          0.712544                  0.287456
     189     H        2          0.775723                  0.224277
     190     O        1          6.540400                 -0.540400
     191     H        2          0.723271                  0.276729
     192     H        2          0.717005                  0.282995
 # Total charge                512.000000                 -0.000000


 !-----------------------------------------------------------------------------!
                           Hirschfeld Charges

  #Atom  Element  Kind  Ref Charge     Population                     Net charge
      1       O      1       6.000          6.527                         -0.527
      2       H      2       1.000          0.732                          0.268
      3       H      2       1.000          0.743                          0.257
      4       O      1       6.000          6.509                         -0.509
      5       H      2       1.000          0.737                          0.263
      6       H      2       1.000          0.724                          0.276
      7       O      1       6.000          6.490                         -0.490
      8       H      2       1.000          0.745                          0.255
      9       H      2       1.000          0.731                          0.269
     10       O      1       6.000          6.488                         -0.488
     11       H      2       1.000          0.746                          0.254
     12       H      2       1.000          0.747                          0.253
     13       O      1       6.000          6.516                         -0.516
     14       H      2       1.000          0.733                          0.267
     15       H      2       1.000          0.734                          0.266
     16       O      1       6.000          6.528                         -0.528
     17       H      2       1.000          0.734                          0.266
     18       H      2       1.000          0.751                          0.249
     19       O      1       6.000          6.519                         -0.519
     20       H      2       1.000          0.749                          0.251
     21       H      2       1.000          0.742                          0.258
     22       O      1       6.000          6.521                         -0.521
     23       H      2       1.000          0.733                          0.267
     24       H      2       1.000          0.738                          0.262
     25       O      1       6.000          6.520                         -0.520
     26       H      2       1.000          0.742                          0.258
     27       H      2       1.000          0.741                          0.259
     28       O      1       6.000          6.512                         -0.512
     29       H      2       1.000          0.745                          0.255
     30       H      2       1.000          0.736                          0.264
     31       O      1       6.000          6.572                         -0.572
     32       H      2       1.000          0.733                          0.267
     33       H      2       1.000          0.756                          0.244
     34       O      1       6.000          6.538                         -0.538
     35       H      2       1.000          0.740                          0.260
     36       H      2       1.000          0.746                          0.254
     37       O      1       6.000          6.506                         -0.506
     38       H      2       1.000          0.739                          0.261
     39       H      2       1.000          0.738                          0.262
     40       O      1       6.000          6.510                         -0.510
     41       H      2       1.000          0.743                          0.257
     42       H      2       1.000          0.738                          0.262
     43       O      1       6.000          6.516                         -0.516
     44       H      2       1.000          0.739                          0.261
     45       H      2       1.000          0.760                          0.240
     46       O      1       6.000          6.508                         -0.508
     47       H      2       1.000          0.750                          0.250
     48       H      2       1.000          0.751                          0.249
     49       O      1       6.000          6.552                         -0.552
     50       H      2       1.000          0.753                          0.247
     51       H      2       1.000          0.742                          0.258
     52       O      1       6.000          6.547                         -0.547
     53       H      2       1.000          0.748                          0.252
     54       H      2       1.000          0.755                          0.245
     55       O      1       6.000          6.493                         -0.493
     56       H      2       1.000          0.738                          0.262
     57       H      2       1.000          0.744                          0.256
     58       O      1       6.000          6.529                         -0.529
     59       H      2       1.000          0.729                          0.271
     60       H      2       1.000          0.746                          0.254
     61       O      1       6.000          6.481                         -0.481
     62       H      2       1.000          0.735                          0.265
     63       H      2       1.000          0.736                          0.264
     64       O      1       6.000          6.527                         -0.527
     65       H      2       1.000          0.747                          0.253
     66       H      2       1.000          0.749                          0.251
     67       O      1       6.000          6.517                         -0.517
     68       H      2       1.000          0.756                          0.244
     69       H      2       1.000          0.751                          0.249
     70       O      1       6.000          6.530                         -0.530
     71       H      2       1.000          0.752                          0.248
     72       H      2       1.000          0.728                          0.272
     73       O      1       6.000          6.493                         -0.493
     74       H      2       1.000          0.749                          0.251
     75       H      2       1.000          0.747                          0.253
     76       O      1       6.000          6.493                         -0.493
     77       H      2       1.000          0.737                          0.263
     78       H      2       1.000          0.741                          0.259
     79       O      1       6.000          6.494                         -0.494
     80       H      2       1.000          0.741                          0.259
     81       H      2       1.000          0.720                          0.280
     82       O      1       6.000          6.540                         -0.540
     83       H      2       1.000          0.750                          0.250
     84       H      2       1.000          0.735                          0.265
     85       O      1       6.000          6.504                         -0.504
     86       H      2       1.000          0.742                          0.258
     87       H      2       1.000          0.729                          0.271
     88       O      1       6.000          6.489                         -0.489
     89       H      2       1.000          0.733                          0.267
     90       H      2       1.000          0.747                          0.253
     91       O      1       6.000          6.518                         -0.518
     92       H      2       1.000          0.734                          0.266
     93       H      2       1.000          0.748                          0.252
     94       O      1       6.000          6.517                         -0.517
     95       H      2       1.000          0.737                          0.263
     96       H      2       1.000          0.736                          0.264
     97       O      1       6.000          6.521                         -0.521
     98       H      2       1.000          0.728                          0.272
     99       H      2       1.000          0.746                          0.254
    100       O      1       6.000          6.495                         -0.495
    101       H      2       1.000          0.739                          0.261
    102       H      2       1.000          0.737                          0.263
    103       O      1       6.000          6.497                         -0.497
    104       H      2       1.000          0.734                          0.266
    105       H      2       1.000          0.732                          0.268
    106       O      1       6.000          6.535                         -0.535
    107       H      2       1.000          0.749                          0.251
    108       H      2       1.000          0.750                          0.250
    109       O      1       6.000          6.492                         -0.492
    110       H      2       1.000          0.733                          0.267
    111       H      2       1.000          0.733                          0.267
    112       O      1       6.000          6.515                         -0.515
    113       H      2       1.000          0.747                          0.253
    114       H      2       1.000          0.740                          0.260
    115       O      1       6.000          6.473                         -0.473
    116       H      2       1.000          0.741                          0.259
    117       H      2       1.000          0.724                          0.276
    118       O      1       6.000          6.570                         -0.570
[...]
    185       H      2       1.000          0.738                          0.262
    186       H      2       1.000          0.761                          0.239
    187       O      1       6.000          6.528                         -0.528
    188       H      2       1.000          0.746                          0.254
    189       H      2       1.000          0.740                          0.260
    190       O      1       6.000          6.500                         -0.500
    191       H      2       1.000          0.753                          0.247
    192       H      2       1.000          0.745                          0.255

  Total Charge                                                            -0.000
 !-----------------------------------------------------------------------------!
  
  Eigenvalues of the occupied subspace spin            1
 ---------------------------------------------
      -0.91619567     -0.91359423     -0.91172850     -0.90956698
      -0.90795086     -0.90619232     -0.90571388     -0.90494035
      -0.90462879     -0.90272499     -0.90080619     -0.89867209
      -0.89751957     -0.89709125     -0.89545857     -0.89466962
      -0.89420072     -0.89259420     -0.89118812     -0.88970415
      -0.88928005     -0.88831304     -0.88728565     -0.88696918
      -0.88527105     -0.88465119     -0.88435288     -0.88410310
      -0.88324612     -0.88013313     -0.87907496     -0.87842639
      -0.87797690     -0.87763740     -0.87742084     -0.87665858
      -0.87631164     -0.87471324     -0.87420026     -0.87303054
      -0.87221770     -0.87152944     -0.87027705     -0.86984565
      -0.86870720     -0.86730154     -0.86638098     -0.86531679
      -0.86482622     -0.86383928     -0.86243128     -0.86085344
      -0.85917426     -0.85877478     -0.85545069     -0.85278934
      -0.85160338     -0.84992728     -0.84857553     -0.84583998
      -0.84431719     -0.84115510     -0.83366269     -0.82674696
      -0.44094612     -0.43199545     -0.42947547     -0.42874954
      -0.42807322     -0.42650405     -0.42502450     -0.42425150
      -0.42338777     -0.42220557     -0.42195664     -0.42086216
      -0.41878525     -0.41755817     -0.41668477     -0.41553087
      -0.41507222     -0.41421070     -0.41262951     -0.41210423
      -0.41071604     -0.40969463     -0.40847860     -0.40739324
      -0.40603595     -0.40505139     -0.40450462     -0.40397327
      -0.40243268     -0.40184873     -0.40138080     -0.39985415
      -0.39886016     -0.39763115     -0.39734686     -0.39604767
      -0.39591393     -0.39518140     -0.39489969     -0.39429533
      -0.39408254     -0.39271388     -0.39215944     -0.39157510
      -0.39018963     -0.38861352     -0.38818705     -0.38750916
      -0.38650225     -0.38624085     -0.38353308     -0.38332068
      -0.38304701     -0.37979305     -0.37923141     -0.37439339
      -0.37357728     -0.37151004     -0.37026714     -0.36597286
      -0.36561834     -0.36200056     -0.35805622     -0.34380809
      -0.32321948     -0.31905168     -0.31559720     -0.31527079
      -0.31321756     -0.31102026     -0.30979111     -0.30677342
      -0.30570827     -0.30299129     -0.30091874     -0.29966390
      -0.29520442     -0.29427135     -0.29078035     -0.28942581
      -0.28797251     -0.28777378     -0.28709037     -0.28650530
      -0.28317609     -0.28137652     -0.27781703     -0.27692087
      -0.27534721     -0.27406231     -0.27303318     -0.27031558
      -0.26859746     -0.26717753     -0.26505253     -0.26348208
      -0.26229676     -0.26115614     -0.26106210     -0.26056857
      -0.25786341     -0.25732333     -0.25514276     -0.25376457
      -0.25272767     -0.25153763     -0.25000361     -0.24888110
      -0.24773769     -0.24719511     -0.24466783     -0.24340506
      -0.24213963     -0.24132340     -0.24025982     -0.23818492
      -0.23700967     -0.23598242     -0.23567216     -0.23260521
      -0.23116300     -0.22952823     -0.22732713     -0.22714882
      -0.22584930     -0.22415479     -0.21574603     -0.20893153
      -0.20796928     -0.20723693     -0.20479570     -0.20358365
      -0.20303475     -0.20283992     -0.20231166     -0.20114762
      -0.19994369     -0.19863997     -0.19802283     -0.19736190
      -0.19716301     -0.19580884     -0.19484988     -0.19392313
      -0.19364634     -0.19303948     -0.19179580     -0.19146960
      -0.19044048     -0.19009128     -0.18951276     -0.18929810
      -0.18893856     -0.18876701     -0.18805214     -0.18756730
      -0.18690511     -0.18624169     -0.18551436     -0.18521971
      -0.18419726     -0.18352579     -0.18301005     -0.18153844
      -0.18063515     -0.18046553     -0.18024259     -0.17965790
      -0.17902480     -0.17797437     -0.17709122     -0.17639886
      -0.17584432     -0.17564008     -0.17484747     -0.17371148
      -0.17323767     -0.17281218     -0.17205391     -0.17151256
      -0.17126880     -0.17030171     -0.16900598     -0.16674283
      -0.16517890     -0.16431147     -0.16218592     -0.16190813
      -0.15932636     -0.15486327     -0.15380929     -0.15040588
 Fermi Energy [eV] :   -4.092752
  
  Lowest Eigenvalues of the unoccupied subspace spin            1
 -----------------------------------------------------
  Reached convergence in          139  iterations 
       0.10112886      0.14552589      0.15276321      0.15622485
  
 HOMO - LUMO gap [eV] :    6.844608

 ENERGY| Total FORCE_EVAL ( QS ) energy (a.u.):            -1102.265511324609406


 -------------------------------------------------------------------------------
 -                                                                             -
 -                                DBCSR STATISTICS                             -
 -                                                                             -
 -------------------------------------------------------------------------------
 COUNTER                                      CPU                  ACC      ACC%
 number of processed stacks                224714                    0       0.0
 matmuls inhomo. stacks                         0                    0       0.0
 matmuls total                           16776658                    0       0.0
 flops   4 x    4 x    4                    86272                    0       0.0
 flops  36 x    4 x   36                   725760                    0       0.0
 flops  36 x    4 x   32                  4515840                    0       0.0
 flops  32 x    4 x   36                  4515840                    0       0.0
 flops   4 x    4 x  184                 12765184                    0       0.0
 flops  36 x   36 x  184                 15261696                    0       0.0
 flops 184 x    4 x    4                 19689472                    0       0.0
 flops  36 x    4 x  184                 29675520                    0       0.0
 flops 184 x    4 x   36                 29675520                    0       0.0
 flops  32 x    4 x   32                 30195712                    0       0.0
 flops   5 x   32 x   32                 94371840                    0       0.0
 flops  32 x   36 x  184                 94961664                    0       0.0
 flops  36 x   32 x  184                 94961664                    0       0.0
 flops  13 x   32 x   32                122683392                    0       0.0
 flops  32 x    4 x  184                196706304                    0       0.0
 flops 184 x    4 x   32                196706304                    0       0.0
 flops 184 x   36 x  184                624033792                    0       0.0
 flops   5 x    4 x    5                842321200                    0       0.0
 flops   5 x    5 x   32                874188800                    0       0.0
 flops  13 x    4 x    5               1077799840                    0       0.0
 flops   5 x    4 x   13               1077799840                    0       0.0
 flops  13 x    5 x   32               1109155840                    0       0.0
 flops   5 x   13 x   32               1113415680                    0       0.0
 flops 184 x    4 x  184               1213399040                    0       0.0
 flops  32 x   32 x   32               1275068416                    0       0.0
 flops  13 x    4 x   13               1370530512                    0       0.0
 flops  13 x   13 x   32               1441902592                    0       0.0
 flops   5 x   32 x    5               4381260800                    0       0.0
 flops  13 x   32 x    5               5606082560                    0       0.0
 flops   5 x   32 x   13               5606082560                    0       0.0
 flops 184 x   32 x   32               6366953472                    0       0.0
 flops  32 x   32 x  184               6680477696                    0       0.0
 flops  13 x   32 x   13               7128695808                    0       0.0
 flops 184 x   32 x  184              12758024192                    0       0.0
 flops total                          61494690624                    0       0.0
 marketing flops                      70701080576
 -------------------------------------------------------------------------------

 -------------------------------------------------------------------------------
 ----                             MULTIGRID INFO                            ----
 -------------------------------------------------------------------------------
 count for grid        1:          38071          cutoff [a.u.]          200.00
 count for grid        2:          57438          cutoff [a.u.]           66.67
 count for grid        3:          57763          cutoff [a.u.]           22.22
 count for grid        4:          11599          cutoff [a.u.]            7.41
 total gridlevel count  :         164871

 -------------------------------------------------------------------------------
 -                                                                             -
 -                         MESSAGE PASSING PERFORMANCE                         -
 -                                                                             -
 -------------------------------------------------------------------------------

 ROUTINE             CALLS  TOT TIME [s]  AVE VOLUME [Bytes]  PERFORMANCE [MB/s]
 MP_Group                5         0.000
 MP_Bcast             3297         0.032              81133.             8429.73
 MP_Allreduce         6997         7.512                191.                0.18
 MP_Gather               4         0.001               1792.                6.85
 MP_Sync               155        23.291
 MP_Alltoall          7278         2.744             331697.              879.76
 MP_ISendRecv         2898         0.006              48653.            24158.85
 MP_Wait            171756         0.870
 MP_comm_split         113         0.016
 MP_ISend            76270         0.133              30415.            17428.34
 MP_IRecv            76270         0.088              30235.            26203.11
 MP_Recv                 7         0.000             376832.             5957.91
 MP_Memory           49132        10.707
 -------------------------------------------------------------------------------


 -------------------------------------------------------------------------------
 -                                                                             -
 -                           R E F E R E N C E S                               -
 -                                                                             -
 -------------------------------------------------------------------------------
 
 CP2K version 2.6, the CP2K developers group (2014).
 CP2K is freely available from http://www.cp2k.org/ .

 Borstnik, U; VandeVondele, J; Weber, V; Hutter, J. 
 PARALLEL COMPUTING, 40 (5-6), 47-58 (2014). 
 Sparse matrix multiplication: The distributed block-compressed sparse
 row library.
 http://dx.doi.org/10.1016/j.parco.2014.03.012


 Hutter, J; Iannuzzi, M; Schiffmann, F; VandeVondele, J. 
 WILEY INTERDISCIPLINARY REVIEWS-COMPUTATIONAL MOLECULAR SCIENCE, 4 (1), 15-25 (2014). 
 CP2K: atomistic simulations of condensed matter systems.
 http://dx.doi.org/10.1002/wcms.1159


 Grimme, S; Ehrlich, S; Goerigk, L. 
 JOURNAL OF COMPUTATIONAL CHEMISTRY, 32, 1456 (2011). 
 Effect of the damping function in dispersion corrected density functional theory.
 http://dx.doi.org/10.1002/jcc.21759


 Grimme, S; Antony, J; Ehrlich, S; Krieg, H. 
 JOURNAL OF CHEMICAL PHYSICS, 132 (15), 154104 (2010). 
 A consistent and accurate ab initio parametrization of density
 functional dispersion correction (DFT-D) for the 94 elements H-Pu.
 http://dx.doi.org/10.1063/1.3382344


 Guidon, M; Hutter, J; VandeVondele, J. 
 JOURNAL OF CHEMICAL THEORY AND COMPUTATION, 5 (11), 3010-3021 (2009). 
 Robust Periodic Hartree-Fock Exchange for Large-Scale Simulations Using
 Gaussian Basis Sets.
 http://dx.doi.org/10.1021/ct900494g


 Guidon, M; Schiffmann, F; Hutter, J; VandeVondele, J. 
 JOURNAL OF CHEMICAL PHYSICS, 128 (21), 214104 (2008). 
 Ab initio molecular dynamics using hybrid density functionals.
 http://dx.doi.org/10.1063/1.2931945


 Krack, M. 
 THEORETICAL CHEMISTRY ACCOUNTS, 114 (1-3), 145-152 (2005). 
 Pseudopotentials for H to Kr optimized for gradient-corrected
 exchange-correlation functionals.
 http://dx.doi.org/10.1007/s00214-005-0655-y


 VandeVondele, J; Krack, M; Mohamed, F; Parrinello, M; Chassaing, T;
 Hutter, J. COMPUTER PHYSICS COMMUNICATIONS, 167 (2), 103-128 (2005). 
 QUICKSTEP: Fast and accurate density functional calculations using a
 mixed Gaussian and plane waves approach.
 http://dx.doi.org/10.1016/j.cpc.2004.12.014


 Frigo, M; Johnson, SG. 
 PROCEEDINGS OF THE IEEE, 93 (2), 216-231 (2005). 
 The design and implementation of FFTW3.
 http://dx.doi.org/10.1109/JPROC.2004.840301


 VandeVondele, J; Hutter, J. 
 JOURNAL OF CHEMICAL PHYSICS, 118 (10), 4365-4369 (2003). 
 An efficient orbital transformation method for electronic structure
 calculations.
 http://dx.doi.org/10.1063/1.1543154


 Hartwigsen, C; Goedecker, S; Hutter, J. 
 PHYSICAL REVIEW B, 58 (7), 3641-3662 (1998). 
 Relativistic separable dual-space Gaussian pseudopotentials from H to Rn.
 http://dx.doi.org/10.1103/PhysRevB.58.3641


 Lippert, G; Hutter, J; Parrinello, M. 
 MOLECULAR PHYSICS, 92 (3), 477-487 (1997). 
 A hybrid Gaussian and plane wave density functional scheme.
 http://dx.doi.org/10.1080/002689797170220


 Perdew, JP; Burke, K; Ernzerhof, M. 
 PHYSICAL REVIEW LETTERS, 77 (18), 3865-3868 (1996). 
 Generalized gradient approximation made simple.
 http://dx.doi.org/10.1103/PhysRevLett.77.3865


 Goedecker, S; Teter, M; Hutter, J. 
 PHYSICAL REVIEW B, 54 (3), 1703-1710 (1996). 
 Separable dual-space Gaussian pseudopotentials.
 http://dx.doi.org/10.1103/PhysRevB.54.1703


 -------------------------------------------------------------------------------
 -                                                                             -
 -                                T I M I N G                                  -
 -                                                                             -
 -------------------------------------------------------------------------------
 SUBROUTINE                       CALLS  ASD         SELF TIME        TOTAL TIME
                                MAXIMUM       AVERAGE  MAXIMUM  AVERAGE  MAXIMUM
 CP2K                                 1  1.0    0.024    0.030   87.045   87.050
 qs_energies_scf                      1  2.0    0.000    0.000   84.406   84.406
 scf_env_do_scf                       1  3.0    0.000    0.000   63.758   63.758
 qs_ks_update_qs_env                  8  5.0    0.000    0.000   61.663   61.665
 rebuild_ks_matrix                    7  6.0    0.000    0.000   61.661   61.663
 qs_ks_build_kohn_sham_matrix         7  7.0    0.002    0.002   61.661   61.663
 hfx_ks_matrix                        7  8.0    0.000    0.000   60.042   60.046
 integrate_four_center                7  9.0   17.616   21.879   60.038   60.043
 scf_env_do_scf_inner_loop            7  4.0    0.000    0.001   39.869   39.931
 init_scf_loop                        1  4.0    0.000    0.000   23.826   23.826
 integrate_four_center_getP           7 10.0   20.575   21.196   20.575   21.196
 integrate_four_center_main           7 10.0    0.004    0.004   17.427   18.594
 integrate_four_center_bin          469 11.0   17.423   18.590   17.423   18.590
 dbcsr_mm_cannon_multiply          2100  7.9    0.932    1.137   16.607   16.776
 scf_post_calculation_gpw             1  3.0    0.000    0.000   16.328   16.328
 make_lumo                            1  4.0    0.000    0.000   16.207   16.207
 ot_eigensolver                       1  5.0    0.007    0.008   16.193   16.193
 ot_mini                            146  6.0    0.002    0.002    8.379    8.384
 cannon_multiply_low               2100  8.9    0.734    0.867    7.416    7.832
 qs_ot_get_derivative                77  7.1    0.002    0.002    7.555    7.572
 dbcsr_make_images                 4200  8.9    0.011    0.012    5.880    6.059
 make_images                       4200  9.9    0.151    0.184    5.869    6.048
 dbcsr_data_new                   72149 10.8    0.152    0.181    4.292    4.813
 internal_data_allocate           43719 11.9    4.142    4.634    4.142    4.634
 integrate_four_center_load           7 10.0    0.000    0.000    4.210    4.544
 hfx_load_balance                     1 11.0    0.001    0.001    4.210    4.544
 qs_ot_get_derivative_diag           53  8.0    0.004    0.004    4.094    4.104
 qs_energies_init_hamiltonians        1  3.0    0.000    0.000    3.951    3.951
 qs_env_update_s_mstruct              1  4.0    0.000    0.000    3.904    3.905
 calculate_rho_core                   1  5.0    1.375    2.844    3.881    3.881
 qs_ot_get_p                        151  6.0    0.002    0.002    3.647    3.718
 dbcsr_create_new                 30970  9.8    0.146    0.166    3.299    3.474
 rs_pw_transfer                      63  9.3    0.001    0.002    1.925    3.360
 rs_pw_transfer_RS2PW_200            10  8.7    1.597    3.035    1.597    3.035
 hfx_load_balance_range               1 12.0    2.657    2.991    2.657    2.991
 dbcsr_data_release              129218 11.1    0.136    0.166    2.783    2.941
 internal_data_deallocate         43719 12.1    2.650    2.810    2.650    2.810
 quickstep_create_force_env           1  2.0    0.002    0.003    2.599    2.601
 qs_init_subsys                       1  3.0    0.001    0.001    2.475    2.475
 setup_buffer_matrices             4200  9.9    1.471    1.567    2.253    2.464
 qs_env_setup                         1  4.0    0.000    0.000    2.390    2.423
 qs_env_rebuild_pw_env                2  3.5    0.000    0.000    2.389    2.422
 pw_env_rebuild                       1  6.0    0.758    0.791    2.389    2.422
 qs_ot_get_orbitals                 150  6.0    0.002    0.003    2.305    2.316
 dbcsr_destroy                    25765  9.2    0.073    0.083    2.011    2.128
 fft_wrap_pw1pw2                    125  9.6    0.002    0.003    2.074    2.083
 buffer_matrices_ensure_size       4200  9.9    1.688    2.062    1.688    2.062
 fft_wrap_pw1pw2_200                 80 10.7    0.056    0.070    1.980    1.987
 fft3d_ps                           125 11.6    0.264    0.339    1.952    1.969
 qs_ot_p2m_diag                     111  7.0    0.003    0.004    1.894    1.913
 -------------------------------------------------------------------------------

  **** **** ******  **  PROGRAM ENDED AT                 2015-03-10 11:53:13.759
 ***** ** ***  *** **   PROGRAM RAN ON                                      n247
 **    ****   ******    PROGRAM RAN BY                                     bja39
 ***** **    ** ** **   PROGRAM PROCESS ID                                 82365
  **** **  *******  **  PROGRAM STOPPED IN /home/dlambrecht/bja39/cp2k/hfx/hfx20
