 DBCSR| Multiplication driver                                                SMM
 DBCSR| Multrec recursion limit                                              512
 DBCSR| Multiplication stack size                                           1000
 DBCSR| Multiplication size stacks                                             3
 DBCSR| Use subcommunicators                                                   T
 DBCSR| Use MPI combined types                                                 F
 DBCSR| Use MPI memory allocation                                              T
 DBCSR| Use Communication thread                                               T
 DBCSR| Communication thread load                                             87


  **** **** ******  **  PROGRAM STARTED AT               2015-03-10 12:06:51.348
 ***** ** ***  *** **   PROGRAM STARTED ON                                  n255
 **    ****   ******    PROGRAM STARTED BY                                 bja39
 ***** **    ** ** **   PROGRAM PROCESS ID                                 13704
  **** **  *******  **  PROGRAM STARTED IN /home/dlambrecht/bja39/cp2k/hfx/hfx70

 CP2K| version string:                                          CP2K version 2.6
 CP2K| source code revision number:                                  git:9520686
 CP2K| is freely available from                             http://www.cp2k.org/
 CP2K| Program compiled at                          Fri Feb 27 09:44:54 EST 2015
 CP2K| Program compiled on                            login0a.frank.sam.pitt.edu
 CP2K| Program compiled for                                                Frank
 CP2K| Input file name                                                   hfx.inp
 
 GLOBAL| Force Environment number                                              1
 GLOBAL| Basis set file name                                           HFX_BASIS
 GLOBAL| Geminal file name                                         BASIS_GEMINAL
 GLOBAL| Potential file name                                      GTH_POTENTIALS
 GLOBAL| MM Potential file name                                     MM_POTENTIAL
 GLOBAL| Coordinate file name                                          water.xyz
 GLOBAL| Method name                                                        CP2K
 GLOBAL| Project name                                                      WATER
 GLOBAL| Preferred FFT library                                             FFTW3
 GLOBAL| Preferred diagonalization lib.                                       SL
 GLOBAL| Run type                                                         ENERGY
 GLOBAL| All-to-all communication in single precision                          F
 GLOBAL| FFTs using library dependent lengths                                  F
 GLOBAL| Global print level                                               MEDIUM
 GLOBAL| Total number of message passing processes                            64
 GLOBAL| Number of threads for this process                                    1
 GLOBAL| This output is from process                                           0

 MEMORY| system memory details [Kb]
 MEMORY|                        rank 0           min           max       average
 MEMORY| MemTotal             32989296      32989296      32989296      32989296
 MEMORY| MemFree               4547892       4529664       7570304       5753888
 MEMORY| Buffers                424996        421408        896884        636457
 MEMORY| Cached               13702376      13702376      19137956      16399733
 MEMORY| Slab                 12941112       4525556      12941112       8843057
 MEMORY| SReclaimable         11569920       3748768      11569920       7781608
 MEMORY| MemLikelyFree        30245184      30226956      30878436      30571686


 *** Fundamental physical constants (SI units) ***

 *** Literature: B. J. Mohr and B. N. Taylor,
 ***             CODATA recommended values of the fundamental physical
 ***             constants: 2006, Web Version 5.1
 ***             http://physics.nist.gov/constants

 Speed of light in vacuum [m/s]                             2.99792458000000E+08
 Magnetic constant or permeability of vacuum [N/A**2]       1.25663706143592E-06
 Electric constant or permittivity of vacuum [F/m]          8.85418781762039E-12
 Planck constant (h) [J*s]                                  6.62606896000000E-34
 Planck constant (h-bar) [J*s]                              1.05457162825177E-34
 Elementary charge [C]                                      1.60217648700000E-19
 Electron mass [kg]                                         9.10938215000000E-31
 Electron g factor [ ]                                     -2.00231930436220E+00
 Proton mass [kg]                                           1.67262163700000E-27
 Fine-structure constant                                    7.29735253760000E-03
 Rydberg constant [1/m]                                     1.09737315685270E+07
 Avogadro constant [1/mol]                                  6.02214179000000E+23
 Boltzmann constant [J/K]                                   1.38065040000000E-23
 Atomic mass unit [kg]                                      1.66053878200000E-27
 Bohr radius [m]                                            5.29177208590000E-11

 *** Conversion factors ***

 [u] -> [a.u.]                                              1.82288848426455E+03
 [Angstrom] -> [Bohr] = [a.u.]                              1.88972613288564E+00
 [a.u.] = [Bohr] -> [Angstrom]                              5.29177208590000E-01
 [a.u.] -> [s]                                              2.41888432650478E-17
 [a.u.] -> [fs]                                             2.41888432650478E-02
 [a.u.] -> [J]                                              4.35974393937059E-18
 [a.u.] -> [N]                                              8.23872205491840E-08
 [a.u.] -> [K]                                              3.15774647902944E+05
 [a.u.] -> [kJ/mol]                                         2.62549961709828E+03
 [a.u.] -> [kcal/mol]                                       6.27509468713739E+02
 [a.u.] -> [Pa]                                             2.94210107994716E+13
 [a.u.] -> [bar]                                            2.94210107994716E+08
 [a.u.] -> [atm]                                            2.90362800883016E+08
 [a.u.] -> [eV]                                             2.72113838565563E+01
 [a.u.] -> [Hz]                                             6.57968392072181E+15
 [a.u.] -> [1/cm] (wave numbers)                            2.19474631370540E+05
 [a.u./Bohr**2] -> [1/cm]                                   5.14048714338585E+03
 

 CELL_TOP| Volume [angstrom^3]:                                         1915.864
 CELL_TOP| Vector a [angstrom    12.420     0.000     0.000    |a| =      12.420
 CELL_TOP| Vector b [angstrom     0.000    12.420     0.000    |b| =      12.420
 CELL_TOP| Vector c [angstrom     0.000     0.000    12.420    |c| =      12.420
 CELL_TOP| Angle (b,c), alpha [degree]:                                   90.000
 CELL_TOP| Angle (a,c), beta  [degree]:                                   90.000
 CELL_TOP| Angle (a,b), gamma [degree]:                                   90.000
 CELL_TOP| Numerically orthorhombic:                                         YES
 
 GENERATE|  Preliminary Number of Bonds generated:                             0
 GENERATE|  Achieved consistency in connectivity generation.

 CELL| Volume [angstrom^3]:                                             1915.864
 CELL| Vector a [angstrom]:      12.420     0.000     0.000    |a| =      12.420
 CELL| Vector b [angstrom]:       0.000    12.420     0.000    |b| =      12.420
 CELL| Vector c [angstrom]:       0.000     0.000    12.420    |c| =      12.420
 CELL| Angle (b,c), alpha [degree]:                                       90.000
 CELL| Angle (a,c), beta  [degree]:                                       90.000
 CELL| Angle (a,b), gamma [degree]:                                       90.000
 CELL| Numerically orthorhombic:                                             YES

 CELL_REF| Volume [angstrom^3]:                                         1915.864
 CELL_REF| Vector a [angstrom    12.420     0.000     0.000    |a| =      12.420
 CELL_REF| Vector b [angstrom     0.000    12.420     0.000    |b| =      12.420
 CELL_REF| Vector c [angstrom     0.000     0.000    12.420    |c| =      12.420
 CELL_REF| Angle (b,c), alpha [degree]:                                   90.000
 CELL_REF| Angle (a,c), beta  [degree]:                                   90.000
 CELL_REF| Angle (a,b), gamma [degree]:                                   90.000
 CELL_REF| Numerically orthorhombic:                                         YES

 *******************************************************************************
 *******************************************************************************
 **                                                                           **
 **     #####                         ##              ##                      **
 **    ##   ##            ##          ##              ##                      **
 **   ##     ##                       ##            ######                    **
 **   ##     ##  ##   ##  ##   #####  ##  ##   ####   ##    #####    #####    **
 **   ##     ##  ##   ##  ##  ##      ## ##   ##      ##   ##   ##  ##   ##   **
 **   ##  ## ##  ##   ##  ##  ##      ####     ###    ##   ######   ######    **
 **    ##  ###   ##   ##  ##  ##      ## ##      ##   ##   ##       ##        **
 **     #######   #####   ##   #####  ##  ##  ####    ##    #####   ##        **
 **           ##                                                    ##        **
 **                                                                           **
 **                                                ... make the atoms dance   **
 **                                                                           **
 **            Copyright (C) by CP2K Developers Group (2000 - 2014)           **
 **                                                                           **
 *******************************************************************************

 DFT| Spin restricted Kohn-Sham (RKS) calculation                            RKS
 DFT| Multiplicity                                                             1
 DFT| Number of spin states                                                    1
 DFT| Charge                                                                   0
 DFT| Self-interaction correction (SIC)                                       NO
 DFT| Cutoffs: density                                              1.000000E-10
 DFT|          gradient                                             1.000000E-10
 DFT|          tau                                                  1.000000E-10
 DFT|          cutoff_smoothing_range                               0.000000E+00
 DFT| XC density smoothing                                                  NONE
 DFT| XC derivatives                                                          PW
 FUNCTIONAL| ROUTINE=NEW
 FUNCTIONAL| PBE:
 FUNCTIONAL| J.P.Perdew, K.Burke, M.Ernzerhof, Phys. Rev. Letter, vol. 77, n 18,
 FUNCTIONAL|  pp. 3865-3868, (1996)sx=0.300sc=1.000{spin unpolarized}
 vdW POTENTIAL|                                                   Pair Potential
 vdW POTENTIAL|          DFT-D3 (Version 3.1)
 vdW POTENTIAL|          Potential Form: S. Grimme et al, JCP 132: 154104 (2010)
 vdW POTENTIAL|          Zero Damping
 vdW POTENTIAL|          Cutoff Radius [Bohr]:                             30.24
 vdW POTENTIAL|          s6 Scaling Factor:                               1.0000
 vdW POTENTIAL|          sr6 Scaling Factor:                              1.2870
 vdW POTENTIAL|          s8 Scaling Factor:                               0.9280
 vdW POTENTIAL|          Cutoff for CN calculation:                   0.1000E-05

 QS| Method:                                                                 GPW
 QS| Density plane wave grid type                        NON-SPHERICAL FULLSPACE
 QS| Number of grid levels:                                                    4
 QS| Density cutoff [a.u.]:                                                200.0
 QS| Multi grid cutoff [a.u.]: 1) grid level                               200.0
 QS|                           2) grid level                                66.7
 QS|                           3) grid level                                22.2
 QS|                           4) grid level                                 7.4
 QS| Grid level progression factor:                                          3.0
 QS| Relative density cutoff [a.u.]:                                        20.0
 QS| Consistent realspace mapping and integration 
 QS| Interaction thresholds: eps_pgf_orb:                                1.0E-05
 QS|                         eps_filter_matrix:                          0.0E+00
 QS|                         eps_core_charge:                            1.0E-12
 QS|                         eps_rho_gspace:                             1.0E-10
 QS|                         eps_rho_rspace:                             1.0E-10
 QS|                         eps_gvg_rspace:                             1.0E-05
 QS|                         eps_ppl:                                    1.0E-02
 QS|                         eps_ppnl:                                   1.0E-07


 ATOMIC KIND INFORMATION

  1. Atomic kind: O                                     Number of atoms:      64

     Orbital Basis Set                                                  DZVP-GTH

       Number of orbital shell sets:                                           3
       Number of orbital shells:                                               5
       Number of primitive Cartesian functions:                                5
       Number of Cartesian basis functions:                                   14
       Number of spherical basis functions:                                   13
       Norm type:                                                              2

       Normalised Cartesian orbitals:

                        Set   Shell   Orbital            Exponent    Coefficient

                          1       1    2s                8.304386       0.778600
                                                         2.457948      -0.081348
                                                         0.759737      -0.597925

                          1       2    3px               8.304386      -2.634104
                                                         2.457948      -1.739269
                                                         0.759737      -0.632383
                          1       2    3py               8.304386      -2.634104
                                                         2.457948      -1.739269
                                                         0.759737      -0.632383
                          1       2    3pz               8.304386      -2.634104
                                                         2.457948      -1.739269
                                                         0.759737      -0.632383

                          2       1    2s                0.213639       0.223960

                          2       2    3px               0.213639       0.207033
                          2       2    3py               0.213639       0.207033
                          2       2    3pz               0.213639       0.207033

                          3       1    3dx2              1.185000       2.215218
                          3       1    3dxy              1.185000       3.836871
                          3       1    3dxz              1.185000       3.836871
                          3       1    3dy2              1.185000       2.215218
                          3       1    3dyz              1.185000       3.836871
                          3       1    3dz2              1.185000       2.215218

     Potential information for                                        GTH-PBE-q6

       Description:                       Goedecker-Teter-Hutter pseudopotential
                                           Goedecker et al., PRB 54, 1703 (1996)
                                          Hartwigsen et al., PRB 58, 3641 (1998)
                                                      Krack, TCA 114, 145 (2005)

       Gaussian exponent of the core charge distribution:               8.360253
       Electronic configuration (s p d ...):                               2   4

       Parameters of the local part of the GTH pseudopotential:

                          rloc        C1          C2          C3          C4
                        0.244554  -16.667215    2.487311

       Parameters of the non-local part of the GTH pseudopotential:

                   l      r(l)      h(i,j,l)

                   0    0.220956   18.337458
                   1    0.211332

  2. Atomic kind: H                                     Number of atoms:     128

     Orbital Basis Set                                                  DZVP-GTH

       Number of orbital shell sets:                                           3
       Number of orbital shells:                                               3
       Number of primitive Cartesian functions:                                5
       Number of Cartesian basis functions:                                    5
       Number of spherical basis functions:                                    5
       Norm type:                                                              2

       Normalised Cartesian orbitals:

                        Set   Shell   Orbital            Exponent    Coefficient

                          1       1    1s                8.374435      -0.191705
                                                         1.805868      -0.285532
                                                         0.485253      -0.319237

                          2       1    1s                0.165824       0.185202

                          3       1    2px               0.727000       0.956881
                          3       1    2py               0.727000       0.956881
                          3       1    2pz               0.727000       0.956881

     Potential information for                                        GTH-PBE-q1

       Description:                       Goedecker-Teter-Hutter pseudopotential
                                           Goedecker et al., PRB 54, 1703 (1996)
                                          Hartwigsen et al., PRB 58, 3641 (1998)
                                                      Krack, TCA 114, 145 (2005)

       Gaussian exponent of the core charge distribution:              12.500000
       Electronic configuration (s p d ...):                                   1

       Parameters of the local part of the GTH pseudopotential:

                          rloc        C1          C2          C3          C4
                        0.200000   -4.178900    0.724463


 MOLECULE KIND INFORMATION


 All atoms are their own molecule, skipping detailed information


 TOTAL NUMBERS AND MAXIMUM NUMBERS

  Total number of            - Atomic kinds:                                   2
                             - Atoms:                                        192
                             - Shell sets:                                   576
                             - Shells:                                       704
                             - Primitive Cartesian functions:                960
                             - Cartesian basis functions:                   1536
                             - Spherical basis functions:                   1472

  Maximum angular momentum of- Orbital basis functions:                        2
                             - Local part of the GTH pseudopotential:          2
                             - Non-local part of the GTH pseudopotential:      0


 MODULE QUICKSTEP:  ATOMIC COORDINATES IN angstrom

  Atom  Kind  Element       X           Y           Z          Z(eff)       Mass

       1     1 O    8    3.858587   -4.753318    5.509197      6.00      15.9994
       2     2 H    1    4.210995   -5.556871    5.999459      1.00       1.0079
       3     2 H    1    3.094708   -4.317266    5.913595      1.00       1.0079
       4     1 O    8   -3.546076    1.745624    4.288021      6.00      15.9994
       5     2 H    1   -3.357258    0.836994    4.152946      1.00       1.0079
       6     2 H    1   -3.608914    1.943698    5.269839      1.00       1.0079
       7     1 O    8    4.569136    2.934327   -7.099972      6.00      15.9994
       8     2 H    1    3.678596    3.229107   -6.804983      1.00       1.0079
       9     2 H    1    4.495367    2.784591   -8.045803      1.00       1.0079
      10     1 O    8   -2.573180   -0.106310   -3.414714      6.00      15.9994
      11     2 H    1   -2.038669    0.415523   -2.828965      1.00       1.0079
      12     2 H    1   -1.889161   -0.614820   -3.928063      1.00       1.0079
      13     1 O    8   -3.762503   -7.710594    5.627998      6.00      15.9994
      14     2 H    1   -4.634354   -7.419980    5.987479      1.00       1.0079
      15     2 H    1   -3.852063   -7.634849    4.660781      1.00       1.0079
      16     1 O    8   -6.713126   -0.075920    2.317684      6.00      15.9994
      17     2 H    1   -6.041585   -0.456040    3.007998      1.00       1.0079
      18     2 H    1   -6.258264    0.734307    1.958295      1.00       1.0079
      19     1 O    8    4.010954   -5.581769   -0.412691      6.00      15.9994
      20     2 H    1    3.332131   -5.616691    0.307694      1.00       1.0079
      21     2 H    1    3.905154   -4.753344   -0.836952      1.00       1.0079
      22     1 O    8   -2.669263   -3.081051   -1.225935      6.00      15.9994
      23     2 H    1   -3.248632   -2.449171   -1.738693      1.00       1.0079
      24     2 H    1   -2.191896   -2.598852   -0.576307      1.00       1.0079
      25     1 O    8    5.457624   -3.168804    3.100260      6.00      15.9994
      26     2 H    1    4.685499   -3.245800    3.622418      1.00       1.0079
      27     2 H    1    5.257937   -3.050750    2.131140      1.00       1.0079
      28     1 O    8    2.007879    3.802589   -6.644120      6.00      15.9994
      29     2 H    1    1.380904    3.070273   -6.803869      1.00       1.0079
      30     2 H    1    1.836607    4.066629   -5.709998      1.00       1.0079
      31     1 O    8    4.060883   -3.892921   -3.059677      6.00      15.9994
      32     2 H    1    3.233271   -3.720667   -3.695376      1.00       1.0079
      33     2 H    1    4.336690   -2.982510   -2.984822      1.00       1.0079
      34     1 O    8    1.977359   -1.844229    1.022567      6.00      15.9994
      35     2 H    1    1.565064   -2.471360    1.649594      1.00       1.0079
      36     2 H    1    1.619481   -1.913312    0.065695      1.00       1.0079
      37     1 O    8    0.733845   -5.743288   -5.010069      6.00      15.9994
      38     2 H    1    1.479577   -6.329923   -4.818933      1.00       1.0079
      39     2 H    1    0.449115   -5.709569   -5.947356      1.00       1.0079
      40     1 O    8   -7.516646   -8.678106   -3.237157      6.00      15.9994
      41     2 H    1   -7.873766   -9.602722   -3.081415      1.00       1.0079
      42     2 H    1   -7.132394   -8.578896   -2.346766      1.00       1.0079
      43     1 O    8    3.008996   -1.620693    5.170452      6.00      15.9994
      44     2 H    1    3.854786   -1.802286    5.686635      1.00       1.0079
      45     2 H    1    3.170083   -0.818538    4.610243      1.00       1.0079
      46     1 O    8   -0.094349    1.863471   -6.686135      6.00      15.9994
      47     2 H    1    0.238983    1.055233   -6.317038      1.00       1.0079
      48     2 H    1   -0.053460    1.737047   -7.652783      1.00       1.0079
      49     1 O    8    1.380300   -3.081547    3.659847      6.00      15.9994
      50     2 H    1    2.005275   -2.679362    4.316923      1.00       1.0079
      51     2 H    1    1.097394   -3.966638    3.981340      1.00       1.0079
      52     1 O    8   -2.327913    2.806079    2.234742      6.00      15.9994
      53     2 H    1   -1.623045    2.131523    2.186616      1.00       1.0079
      54     2 H    1   -2.760923    2.581957    3.088951      1.00       1.0079
      55     1 O    8    0.874513   -0.661119   -5.600405      6.00      15.9994
      56     2 H    1    1.720402   -0.818966   -6.109861      1.00       1.0079
      57     2 H    1    1.196412   -0.240506   -4.754906      1.00       1.0079
      58     1 O    8   -1.186646   -0.716403    0.243785      6.00      15.9994
      59     2 H    1   -1.134001    0.232571   -0.072616      1.00       1.0079
      60     2 H    1   -0.933544   -0.785478    1.201134      1.00       1.0079
      61     1 O    8   -3.886194   -9.012929   -3.131857      6.00      15.9994
      62     2 H    1   -4.498349   -8.280126   -3.216022      1.00       1.0079
      63     2 H    1   -2.918386   -8.730140   -3.122451      1.00       1.0079
      64     1 O    8    4.978441    4.557411    2.160598      6.00      15.9994
      65     2 H    1    4.574251    4.069025    1.437504      1.00       1.0079
      66     2 H    1    4.210678    4.907944    2.673609      1.00       1.0079
      67     1 O    8    4.207481    1.029475   -3.213494      6.00      15.9994
      68     2 H    1    4.625087    0.852431   -4.064867      1.00       1.0079
      69     2 H    1    4.422152    0.192039   -2.736436      1.00       1.0079
      70     1 O    8   -5.210635   -6.346370   -2.680646      6.00      15.9994
      71     2 H    1   -5.380163   -6.086183   -1.773761      1.00       1.0079
      72     2 H    1   -5.998555   -6.089431   -3.152188      1.00       1.0079
      73     1 O    8    4.827201   -2.149309    0.695756      6.00      15.9994
      74     2 H    1    5.169811   -1.384311    1.168073      1.00       1.0079
      75     2 H    1    3.873140   -2.015277    0.790152      1.00       1.0079
      76     1 O    8    2.108497    0.940656    1.696470      6.00      15.9994
      77     2 H    1    2.763570    1.510652    1.258248      1.00       1.0079
      78     2 H    1    2.313842    0.079150    1.294322      1.00       1.0079
      79     1 O    8   -5.757905   -5.093599   -0.361373      6.00      15.9994
      80     2 H    1   -6.692202   -5.443891   -0.243446      1.00       1.0079
      81     2 H    1   -5.933954   -4.185226   -0.689323      1.00       1.0079
      82     1 O    8   -4.850118    4.634751    2.632366      6.00      15.9994
      83     2 H    1   -5.818692    4.729150    2.364808      1.00       1.0079
      84     2 H    1   -4.768696    3.668506    2.248911      1.00       1.0079
      85     1 O    8    5.512389    0.852383   -5.592791      6.00      15.9994
      86     2 H    1    6.400927    1.196167   -5.345498      1.00       1.0079
      87     2 H    1    5.032627    1.457110   -6.282087      1.00       1.0079
      88     1 O    8    0.736518   -1.917695   -1.272458      6.00      15.9994
      89     2 H    1    0.436663   -2.668596   -1.845250      1.00       1.0079
      90     2 H    1   -0.028072   -1.634696   -0.732364      1.00       1.0079
      91     1 O    8    3.900594    2.622197    0.082498      6.00      15.9994
      92     2 H    1    4.660363    2.413641   -0.488502      1.00       1.0079
      93     2 H    1    3.361931    3.246591   -0.459951      1.00       1.0079
      94     1 O    8   -1.099162   -1.369341    2.949888      6.00      15.9994
      95     2 H    1   -0.335406   -2.036901    3.107502      1.00       1.0079
      96     2 H    1   -1.847346   -1.991636    3.203214      1.00       1.0079
      97     1 O    8    2.071845   -5.650168    1.362908      6.00      15.9994
      98     2 H    1    1.204362   -6.136982    1.256069      1.00       1.0079
      99     2 H    1    2.450750   -5.885909    2.255821      1.00       1.0079
     100     1 O    8   -0.628031   -3.827349   -2.846086      6.00      15.9994
     101     2 H    1   -1.558364   -3.776964   -2.581114      1.00       1.0079
     102     2 H    1   -0.511229   -4.587952   -3.398223      1.00       1.0079
     103     1 O    8   -5.291843    2.062167    1.435301      6.00      15.9994
     104     2 H    1   -4.454945    1.877605    1.901455      1.00       1.0079
     105     2 H    1   -5.133594    1.919821    0.419723      1.00       1.0079
     106     1 O    8    1.959972   -3.424563   -5.267360      6.00      15.9994
     107     2 H    1    1.322556   -4.212309   -5.038883      1.00       1.0079
     108     2 H    1    1.299929   -2.771147   -5.498678      1.00       1.0079
     109     1 O    8   -1.193321    3.936851   -3.373747      6.00      15.9994
     110     2 H    1   -1.200301    3.980365   -4.358294      1.00       1.0079
     111     2 H    1   -0.740251    4.650096   -2.940559      1.00       1.0079
     112     1 O    8   -5.424398   -5.002981    4.278463      6.00      15.9994
     113     2 H    1   -6.116403   -4.512700    3.781732      1.00       1.0079
     114     2 H    1   -4.740320   -5.349861    3.692094      1.00       1.0079
     115     1 O    8    2.973298    5.793755    3.604183      6.00      15.9994
     116     2 H    1    3.417671    6.472671    4.169501      1.00       1.0079
     117     2 H    1    2.448520    5.204109    4.225087      1.00       1.0079
     118     1 O    8   -4.051130    1.544593   -5.062650      6.00      15.9994
     119     2 H    1   -3.538710    0.797484   -4.621055      1.00       1.0079
     120     2 H    1   -4.033382    2.351849   -4.430137      1.00       1.0079
     121     1 O    8    3.484773    0.599769    4.009149      6.00      15.9994
     122     2 H    1    2.789650    0.537511    3.268667      1.00       1.0079
     123     2 H    1    4.318998    0.415332    3.439528      1.00       1.0079
     124     1 O    8   -4.620748   -1.011762    4.004895      6.00      15.9994
     125     2 H    1   -5.347759   -1.244306    4.625324      1.00       1.0079
     126     2 H    1   -4.216388   -1.884479    3.842806      1.00       1.0079
     127     1 O    8   -0.216539    1.275147    3.116717      6.00      15.9994
     128     2 H    1    0.637178    1.413680    2.728697      1.00       1.0079
     129     2 H    1   -0.389412    0.322584    3.050879      1.00       1.0079
     130     1 O    8   -1.991535    5.069708    0.600019      6.00      15.9994
     131     2 H    1   -2.337650    4.234088    1.001390      1.00       1.0079
     132     2 H    1   -2.652025    5.747116    0.850662      1.00       1.0079
     133     1 O    8   -1.307547   -1.895612   -4.954292      6.00      15.9994
     134     2 H    1   -0.870125   -2.402819   -4.256374      1.00       1.0079
     135     2 H    1   -0.594969   -1.353212   -5.453243      1.00       1.0079
     136     1 O    8   -5.137345    1.806207   -1.286768      6.00      15.9994
     137     2 H    1   -4.698159    2.459748   -1.850567      1.00       1.0079
     138     2 H    1   -5.424553    1.125693   -1.863395      1.00       1.0079
     139     1 O    8   -7.383656   -1.211987   -1.950660      6.00      15.9994
     140     2 H    1   -6.421288   -1.037143   -2.146380      1.00       1.0079
     141     2 H    1   -7.480878   -1.531048   -1.033948      1.00       1.0079
     142     1 O    8   -0.463945    1.404847   -1.722864      6.00      15.9994
     143     2 H    1   -0.786735    2.186650   -2.196230      1.00       1.0079
     144     2 H    1    0.274393    0.986416   -2.221585      1.00       1.0079
     145     1 O    8   -0.029811   -6.521092   -1.093364      6.00      15.9994
     146     2 H    1    0.002142   -5.531145   -1.122665      1.00       1.0079
     147     2 H    1   -0.803113   -6.743514   -0.464856      1.00       1.0079
     148     1 O    8    5.709094   -1.692709    6.018549      6.00      15.9994
     149     2 H    1    6.022772   -2.510238    6.419541      1.00       1.0079
     150     2 H    1    5.679350   -0.901240    6.652196      1.00       1.0079
     151     1 O    8   -2.596298   -5.768397   -4.219577      6.00      15.9994
     152     2 H    1   -2.604903   -6.707767   -4.472834      1.00       1.0079
     153     2 H    1   -3.435454   -5.564584   -3.848351      1.00       1.0079
     154     1 O    8   -4.944969   -1.408672   -3.247339      6.00      15.9994
     155     2 H    1   -4.891302   -2.221732   -3.767422      1.00       1.0079
     156     2 H    1   -3.968955   -1.096486   -3.234198      1.00       1.0079
     157     1 O    8    2.298375   -8.080949   -1.213241      6.00      15.9994
     158     2 H    1    1.300368   -8.063628   -1.114392      1.00       1.0079
     159     2 H    1    2.516194   -7.105367   -1.176852      1.00       1.0079
     160     1 O    8    6.775436   -3.896533   -5.335926      6.00      15.9994
     161     2 H    1    7.549942   -4.100300   -5.821362      1.00       1.0079
     162     2 H    1    6.043016   -4.432815   -5.647961      1.00       1.0079
     163     1 O    8   -0.342484    4.965811    2.950829      6.00      15.9994
     164     2 H    1   -0.641824    4.167256    3.471638      1.00       1.0079
     165     2 H    1   -0.675974    4.869938    2.055138      1.00       1.0079
     166     1 O    8   -2.805629   -4.004823    6.223906      6.00      15.9994
     167     2 H    1   -2.385060   -4.632289    6.845556      1.00       1.0079
     168     2 H    1   -2.379735   -3.149823    6.433016      1.00       1.0079
     169     1 O    8   -2.792511   -3.473224    3.461233      6.00      15.9994
     170     2 H    1   -3.112954   -3.862064    4.274613      1.00       1.0079
     171     2 H    1   -3.285609   -4.027145    2.827441      1.00       1.0079
     172     1 O    8    2.486771    4.680362   -3.951121      6.00      15.9994
     173     2 H    1    3.397137    4.508164   -3.629816      1.00       1.0079
     174     2 H    1    1.979071    4.624068   -3.115244      1.00       1.0079
     175     1 O    8    1.659077    0.052314   -3.106919      6.00      15.9994
     176     2 H    1    1.511356   -0.599677   -2.356369      1.00       1.0079
     177     2 H    1    2.506872    0.526419   -3.066152      1.00       1.0079
     178     1 O    8   -1.202305   -8.160348   -6.367070      6.00      15.9994
     179     2 H    1   -0.905516   -9.069055   -6.570527      1.00       1.0079
     180     2 H    1   -2.179810   -8.074002   -6.546491      1.00       1.0079
     181     1 O    8   -0.476107    8.385162    0.598747      6.00      15.9994
     182     2 H    1    0.363244    8.309655    1.105835      1.00       1.0079
     183     2 H    1   -1.285239    8.075385    1.058726      1.00       1.0079
     184     1 O    8    5.906545   -6.798977   -6.600440      6.00      15.9994
     185     2 H    1    5.413015   -7.623317   -6.913788      1.00       1.0079
     186     2 H    1    6.217751   -6.234454   -7.319872      1.00       1.0079
     187     1 O    8   -0.359433   -5.262244    4.670430      6.00      15.9994
     188     2 H    1   -0.415613   -6.098882    4.136748      1.00       1.0079
     189     2 H    1   -1.293113   -5.154797    4.949758      1.00       1.0079
     190     1 O    8   -3.827313   -5.527924    1.763366      6.00      15.9994
     191     2 H    1   -4.138854   -6.362200    2.151380      1.00       1.0079
     192     2 H    1   -4.395567   -5.321694    1.040595      1.00       1.0079




 SCF PARAMETERS         Density guess:                                   RESTART
                        --------------------------------------------------------
                        max_scf:                                              30
                        max_scf_history:                                       0
                        max_diis:                                              4
                        --------------------------------------------------------
                        eps_scf:                                        1.00E-06
                        eps_scf_history:                                0.00E+00
                        eps_diis:                                       1.00E-01
                        eps_eigval:                                     1.00E-05
                        --------------------------------------------------------
                        level_shift [a.u.]:                                 0.00
                        --------------------------------------------------------
                        Outer loop SCF in use 
                        No variables optimised in outer loop
                        eps_scf                                         1.00E-06
                        max_scf                                               10
                        No outer loop optimization
                        step_size                                       5.00E-01

 PW_GRID| Information for grid number                                          1
 PW_GRID| Grid distributed over                                    64 processors
 PW_GRID| Real space group dimensions                                    64    1
 PW_GRID| the grid is blocked:                                                NO
 PW_GRID| Cutoff [a.u.]                                                    200.0
 PW_GRID| spherical cutoff:                                                   NO
 PW_GRID|   Bounds   1            -75      74                Points:         150
 PW_GRID|   Bounds   2            -75      74                Points:         150
 PW_GRID|   Bounds   3            -75      74                Points:         150
 PW_GRID| Volume element (a.u.^3)  0.3831E-02     Volume (a.u.^3)     12928.8946
 PW_GRID| Grid span                                                    FULLSPACE
 PW_GRID|   Distribution                         Average         Max         Min
 PW_GRID|   G-Vectors                            52734.4       52800       52650
 PW_GRID|   G-Rays                                 351.6         352         351
 PW_GRID|   Real Space Points                    52734.4       67500       45000

 PW_GRID| Information for grid number                                          2
 PW_GRID| Grid distributed over                                    64 processors
 PW_GRID| Real space group dimensions                                    64    1
 PW_GRID| the grid is blocked:                                                NO
 PW_GRID| Cutoff [a.u.]                                                     66.7
 PW_GRID| spherical cutoff:                                                   NO
 PW_GRID|   Bounds   1            -45      44                Points:          90
 PW_GRID|   Bounds   2            -45      44                Points:          90
 PW_GRID|   Bounds   3            -45      44                Points:          90
 PW_GRID| Volume element (a.u.^3)  0.1774E-01     Volume (a.u.^3)     12928.8946
 PW_GRID| Grid span                                                    FULLSPACE
 PW_GRID|   Distribution                         Average         Max         Min
 PW_GRID|   G-Vectors                            11390.6       11430       11340
 PW_GRID|   G-Rays                                 126.6         127         126
 PW_GRID|   Real Space Points                    11390.6       16200        8100

 PW_GRID| Information for grid number                                          3
 PW_GRID| Grid distributed over                                    64 processors
 PW_GRID| Real space group dimensions                                     8    8
 PW_GRID| the grid is blocked:                                                NO
 PW_GRID| Cutoff [a.u.]                                                     22.2
 PW_GRID| spherical cutoff:                                                   NO
 PW_GRID|   Bounds   1            -27      26                Points:          54
 PW_GRID|   Bounds   2            -27      26                Points:          54
 PW_GRID|   Bounds   3            -27      26                Points:          54
 PW_GRID| Volume element (a.u.^3)  0.8211E-01     Volume (a.u.^3)     12928.8946
 PW_GRID| Grid span                                                    FULLSPACE
 PW_GRID|   Distribution                         Average         Max         Min
 PW_GRID|   G-Vectors                             2460.4        2592        2322
 PW_GRID|   G-Rays                                  45.6          48          43
 PW_GRID|   Real Space Points                     2460.4        2646        1944

 PW_GRID| Information for grid number                                          4
 PW_GRID| Grid distributed over                                    64 processors
 PW_GRID| Real space group dimensions                                     8    8
 PW_GRID| the grid is blocked:                                                NO
 PW_GRID| Cutoff [a.u.]                                                      7.4
 PW_GRID| spherical cutoff:                                                   NO
 PW_GRID|   Bounds   1            -15      14                Points:          30
 PW_GRID|   Bounds   2            -15      14                Points:          30
 PW_GRID|   Bounds   3            -15      14                Points:          30
 PW_GRID| Volume element (a.u.^3)  0.4788         Volume (a.u.^3)     12928.8946
 PW_GRID| Grid span                                                    FULLSPACE
 PW_GRID|   Distribution                         Average         Max         Min
 PW_GRID|   G-Vectors                              421.9         480         390
 PW_GRID|   G-Rays                                  14.1          16          13
 PW_GRID|   Real Space Points                      421.9         480         270

 POISSON| Solver                                                        PERIODIC
 POISSON| Periodicity                                                        XYZ

 RS_GRID| Information for grid number                                          1
 RS_GRID|   Bounds   1            -75      74                Points:         150
 RS_GRID|   Bounds   2            -75      74                Points:         150
 RS_GRID|   Bounds   3            -75      74                Points:         150
 RS_GRID| Real space distribution over                                  4 groups
 RS_GRID| Real space distribution along direction                              1
 RS_GRID| Border size                                                         19
 RS_GRID| Real space distribution over                                  4 groups
 RS_GRID| Real space distribution along direction                              2
 RS_GRID| Border size                                                         19
 RS_GRID| Real space distribution over                                  4 groups
 RS_GRID| Real space distribution along direction                              3
 RS_GRID| Border size                                                         19
 RS_GRID|   Distribution                         Average         Max         Min
 RS_GRID|   Planes                                  75.5          76          75
 RS_GRID|   Distribution                         Average         Max         Min
 RS_GRID|   Planes                                  75.5          76          75
 RS_GRID|   Distribution                         Average         Max         Min
 RS_GRID|   Planes                                  75.5          76          75

 RS_GRID| Information for grid number                                          2
 RS_GRID|   Bounds   1            -45      44                Points:          90
 RS_GRID|   Bounds   2            -45      44                Points:          90
 RS_GRID|   Bounds   3            -45      44                Points:          90
 RS_GRID| Real space distribution over                                  4 groups
 RS_GRID| Real space distribution along direction                              1
 RS_GRID| Border size                                                         20
 RS_GRID| Real space distribution over                                  4 groups
 RS_GRID| Real space distribution along direction                              2
 RS_GRID| Border size                                                         20
 RS_GRID| Real space distribution over                                  4 groups
 RS_GRID| Real space distribution along direction                              3
 RS_GRID| Border size                                                         20
 RS_GRID|   Distribution                         Average         Max         Min
 RS_GRID|   Planes                                  62.5          63          62
 RS_GRID|   Distribution                         Average         Max         Min
 RS_GRID|   Planes                                  62.5          63          62
 RS_GRID|   Distribution                         Average         Max         Min
 RS_GRID|   Planes                                  62.5          63          62

 RS_GRID| Information for grid number                                          3
 RS_GRID|   Bounds   1            -27      26                Points:          54
 RS_GRID|   Bounds   2            -27      26                Points:          54
 RS_GRID|   Bounds   3            -27      26                Points:          54
 RS_GRID| Real space fully replicated
 RS_GRID| Group size                                                           1

 RS_GRID| Information for grid number                                          4
 RS_GRID|   Bounds   1            -15      14                Points:          30
 RS_GRID|   Bounds   2            -15      14                Points:          30
 RS_GRID|   Bounds   3            -15      14                Points:          30
 RS_GRID| Real space fully replicated
 RS_GRID| Group size                                                           1

 DISTRIBUTION OF THE PARTICLES (ROWS)
              Process row      Number of particles         Number of matrix rows
                        0                       24                            -1
                        1                       24                            -1
                        2                       24                            -1
                        3                       24                            -1
                        4                       24                            -1
                        5                       24                            -1
                        6                       24                            -1
                        7                       24                            -1
                      Sum                      192                            -1

 DISTRIBUTION OF THE PARTICLES (COLUMNS)
              Process col      Number of particles      Number of matrix columns
                        0                       24                            -1
                        1                       24                            -1
                        2                       24                            -1
                        3                       24                            -1
                        4                       24                            -1
                        5                       24                            -1
                        6                       24                            -1
                        7                       24                            -1
                      Sum                      192                            -1

  HFX_INFO| Replica ID:                                                        1
  HFX_INFO| EPS_SCHWARZ:                                                 1.0E-06
  HFX_INFO| EPS_SCHWARZ_FORCES                                           1.0E-06
  HFX_INFO| EPS_STORAGE_SCALING:                                         1.0E-01
  HFX_INFO| NBINS:                                                            64
  HFX_INFO| BLOCK_SIZE:                                                        3
  HFX_INFO| FRACTION:                                               0.7000000000
  HFX_INFO| Interaction Potential:                                     TRUNCATED
  HFX_INFO| Cutoff Radius [angstrom]:                               6.0000000000
  HFX_INFO| NUMBER_OF_SHELLS:                                               AUTO
  HFX_INFO| Number of periodic shells considered:                             -1
  HFX_INFO| Number of periodic cells considered:                              27


 DISTRIBUTION OF THE NEIGHBOR LISTS
              Total number of particle pairs:                              21379
              Total number of matrix elements:                           1231147
              Average number of particle pairs:                              335
              Maximum number of particle pairs:                              370
              Average number of matrix element:                            19237
              Maximum number of matrix elements:                           21624


 DISTRIBUTION OF THE OVERLAP MATRIX
              Number  of non-zero blocks:                                  16652
              Percentage non-zero blocks:                                  89.87
              Average number of blocks per CPU:                              261
              Maximum number of blocks per CPU:                              279
              Average number of matrix elements per CPU:                   15194
              Maximum number of matrix elements per CPU:                   16625

 Number of electrons:                                                        512
 Number of occupied orbitals:                                                256
 Number of molecular orbitals:                                               256

 Number of orbital functions:                                               1472
 Number of independent orbital functions:                                   1472

 Extrapolation method: initial_guess


 SCF WAVEFUNCTION OPTIMIZATION

  ----------------------------------- OT ---------------------------------------

  Allowing for rotations:  F
  Optimizing orbital energies:  F
  Minimizer      : DIIS                : direct inversion
                                         in the iterative subspace
                            using      : -   7 DIIS vectors
                                         - safer DIIS on
  Preconditioner : FULL_SINGLE_INVERSE : inversion of H + eS - 2*(Sc)(c^T*H*c+const)(Sc)^T
  Precond_solver : DEFAULT
  stepsize       :    0.08000000
  energy_gap     :    0.08000000

  eps_taylor     :   0.10000E-15
  max_taylor     :             4

  mixed_precision    : F

  ----------------------------------- OT ---------------------------------------

  Step     Update method      Time    Convergence         Total energy    Change
  ------------------------------------------------------------------------------

  Trace(PS):                                  512.0000000000
  Electronic density on regular grids:       -511.9999999886        0.0000000114
  Core density on regular grids:              511.9999999836       -0.0000000164
  Total charge density on r-space grids:       -0.0000000051
  Total charge density g-space grids:          -0.0000000051


  HFX_MEM_INFO| Est. max. program size before HFX [MB's]:                    148

 *** 12:07:27 WARNING in hfx_energy_potential:integrate_four_center :: The ***
 *** Kohn Sham matrix is not 100% occupied. This may result in uncorrect   ***
 *** Hartree-Fock results. Try to decrease EPS_PGF_ORB and                 ***
 *** EPS_FILTER_MATRIX in the QS section.                                  ***

  HFX_MEM_INFO| Number of cart. primitive ERI's calculated:          16091091976
  HFX_MEM_INFO| Number of sph. ERI's calculated:                      3464714451
  HFX_MEM_INFO| Number of sph. ERI's stored in-core:                  1148714899
  HFX_MEM_INFO| Number of sph. ERI's stored on disk:                           0
  HFX_MEM_INFO| Number of sph. ERI's calculated on the fly:                    0
  HFX_MEM_INFO| Total memory consumption ERI's RAM [MB's]:                  1110
  HFX_MEM_INFO| Whereof max-vals [MB's]:                                      62
  HFX_MEM_INFO| Total compression factor ERI's RAM:                         7.90
  HFX_MEM_INFO| Total memory consumption ERI's disk [MB's]:                    0
  HFX_MEM_INFO| Total compression factor ERI's disk:                        0.00
  HFX_MEM_INFO| Size of density/Fock matrix [MB's]:                           14
  HFX_MEM_INFO| Size of buffers [MB's]:                                        2
  HFX_MEM_INFO| Number of periodic image cells considered:                    27
  HFX_MEM_INFO| Est. max. program size after HFX  [MB's]:                    189

     1 OT DIIS     0.80E-01   28.1     0.00160432     -1101.4321077889 -1.10E+03

  Trace(PS):                                  512.0000000000
  Electronic density on regular grids:       -511.9999999887        0.0000000113
  Core density on regular grids:              511.9999999836       -0.0000000164
  Total charge density on r-space grids:       -0.0000000051
  Total charge density g-space grids:          -0.0000000051

     2 OT DIIS     0.80E-01    9.5     0.00113633     -1101.4982707802 -6.62E-02

  Trace(PS):                                  512.0000000000
  Electronic density on regular grids:       -511.9999999887        0.0000000113
  Core density on regular grids:              511.9999999836       -0.0000000164
  Total charge density on r-space grids:       -0.0000000052
  Total charge density g-space grids:          -0.0000000052

     3 OT DIIS     0.80E-01   12.9     0.00022088     -1101.5664160071 -6.81E-02

  Trace(PS):                                  512.0000000000
  Electronic density on regular grids:       -511.9999999887        0.0000000113
  Core density on regular grids:              511.9999999836       -0.0000000164
  Total charge density on r-space grids:       -0.0000000052
  Total charge density g-space grids:          -0.0000000052

     4 OT DIIS     0.80E-01    6.0     0.00008517     -1101.5688423810 -2.43E-03

  Trace(PS):                                  512.0000000000
  Electronic density on regular grids:       -511.9999999888        0.0000000112
  Core density on regular grids:              511.9999999836       -0.0000000164
  Total charge density on r-space grids:       -0.0000000052
  Total charge density g-space grids:          -0.0000000052

     5 OT DIIS     0.80E-01    8.8     0.00003259     -1101.5692566121 -4.14E-04

  Trace(PS):                                  512.0000000000
  Electronic density on regular grids:       -511.9999999888        0.0000000112
  Core density on regular grids:              511.9999999836       -0.0000000164
  Total charge density on r-space grids:       -0.0000000052
  Total charge density g-space grids:          -0.0000000052

     6 OT DIIS     0.80E-01    6.5     0.00001428     -1101.5693222900 -6.57E-05

  Trace(PS):                                  512.0000000000
  Electronic density on regular grids:       -511.9999999888        0.0000000112
  Core density on regular grids:              511.9999999836       -0.0000000164
  Total charge density on r-space grids:       -0.0000000052
  Total charge density g-space grids:          -0.0000000052

     7 OT DIIS     0.80E-01   12.3     0.00000562     -1101.5693320474 -9.76E-06

  Trace(PS):                                  512.0000000000
  Electronic density on regular grids:       -511.9999999888        0.0000000112
  Core density on regular grids:              511.9999999836       -0.0000000164
  Total charge density on r-space grids:       -0.0000000052
  Total charge density g-space grids:          -0.0000000052

     8 OT DIIS     0.80E-01    4.9     0.00000193     -1101.5693335946 -1.55E-06

  Trace(PS):                                  512.0000000000
  Electronic density on regular grids:       -511.9999999888        0.0000000112
  Core density on regular grids:              511.9999999836       -0.0000000164
  Total charge density on r-space grids:       -0.0000000052
  Total charge density g-space grids:          -0.0000000052

     9 OT DIIS     0.80E-01   13.2     0.00000069     -1101.5693338207 -2.26E-07

  *** SCF run converged in     9 steps ***


  Electronic density on regular grids:       -511.9999999888        0.0000000112
  Core density on regular grids:              511.9999999836       -0.0000000164
  Total charge density on r-space grids:       -0.0000000052
  Total charge density g-space grids:          -0.0000000052

  Overlap energy of the core charge distribution:               0.00000237129466
  Self energy of the core charge distribution:              -2838.21791979121008
  Core Hamiltonian energy:                                    828.41451054463630
  Hartree energy:                                            1180.18528569651744
  Exchange-correlation energy:                                -94.85934220351133
  Hartree-Fock Exchange energy:                              -176.84550345027321
  Dispersion energy:                                           -0.24636698815184

  Total energy:                                             -1101.56933382069792

  outer SCF iter =    1 RMS gradient =   0.69E-06 energy =      -1101.5693338207
  outer SCF loop converged in   1 iterations or    9 steps



 MULLIKEN POPULATION ANALYSIS

 #  Atom  Element  Kind  Atomic population                Net charge
       1     O        1          6.613122                 -0.613122
       2     H        2          0.708788                  0.291212
       3     H        2          0.679095                  0.320905
       4     O        1          6.595559                 -0.595559
       5     H        2          0.722394                  0.277606
       6     H        2          0.655983                  0.344017
       7     O        1          6.588897                 -0.588897
       8     H        2          0.673784                  0.326216
       9     H        2          0.729384                  0.270616
      10     O        1          6.606086                 -0.606086
      11     H        2          0.730791                  0.269209
      12     H        2          0.699271                  0.300729
      13     O        1          6.606587                 -0.606587
      14     H        2          0.686783                  0.313217
      15     H        2          0.711393                  0.288607
      16     O        1          6.715646                 -0.715646
      17     H        2          0.645813                  0.354187
      18     H        2          0.647910                  0.352090
      19     O        1          6.602962                 -0.602962
      20     H        2          0.650676                  0.349324
      21     H        2          0.740325                  0.259675
      22     O        1          6.541582                 -0.541582
      23     H        2          0.747754                  0.252246
      24     H        2          0.708896                  0.291104
      25     O        1          6.588594                 -0.588594
      26     H        2          0.730705                  0.269295
      27     H        2          0.672263                  0.327737
      28     O        1          6.613396                 -0.613396
      29     H        2          0.710431                  0.289569
      30     H        2          0.686722                  0.313278
      31     O        1          6.565423                 -0.565423
      32     H        2          0.702637                  0.297363
      33     H        2          0.742766                  0.257234
      34     O        1          6.709312                 -0.709312
      35     H        2          0.676339                  0.323661
      36     H        2          0.625823                  0.374177
      37     O        1          6.606445                 -0.606445
      38     H        2          0.688514                  0.311486
      39     H        2          0.681238                  0.318762
      40     O        1          6.530059                 -0.530059
      41     H        2          0.692665                  0.307335
      42     H        2          0.771486                  0.228514
      43     O        1          6.703914                 -0.703914
      44     H        2          0.655921                  0.344079
      45     H        2          0.671808                  0.328192
      46     O        1          6.607241                 -0.607241
      47     H        2          0.719651                  0.280349
      48     H        2          0.679104                  0.320896
      49     O        1          6.653255                 -0.653255
      50     H        2          0.654124                  0.345876
      51     H        2          0.696401                  0.303599
      52     O        1          6.631674                 -0.631674
      53     H        2          0.709089                  0.290911
      54     H        2          0.680474                  0.319526
      55     O        1          6.686284                 -0.686284
      56     H        2          0.674634                  0.325366
      57     H        2          0.642423                  0.357577
      58     O        1          6.629760                 -0.629760
      59     H        2          0.688937                  0.311063
      60     H        2          0.675987                  0.324013
      61     O        1          6.674460                 -0.674460
      62     H        2          0.675426                  0.324574
      63     H        2          0.639736                  0.360264
      64     O        1          6.599890                 -0.599890
      65     H        2          0.720790                  0.279210
      66     H        2          0.688740                  0.311260
      67     O        1          6.650609                 -0.650609
      68     H        2          0.683470                  0.316530
      69     H        2          0.675754                  0.324246
      70     O        1          6.568377                 -0.568377
      71     H        2          0.702026                  0.297974
      72     H        2          0.738347                  0.261653
      73     O        1          6.612434                 -0.612434
      74     H        2          0.682905                  0.317095
      75     H        2          0.698013                  0.301987
      76     O        1          6.586445                 -0.586445
      77     H        2          0.684506                  0.315494
      78     H        2          0.707998                  0.292002
      79     O        1          6.618061                 -0.618061
      80     H        2          0.654389                  0.345611
      81     H        2          0.728615                  0.271385
      82     O        1          6.692385                 -0.692385
      83     H        2          0.632727                  0.367273
      84     H        2          0.670949                  0.329051
      85     O        1          6.716801                 -0.716801
      86     H        2          0.665820                  0.334180
      87     H        2          0.602593                  0.397407
      88     O        1          6.669435                 -0.669435
      89     H        2          0.639959                  0.360041
      90     H        2          0.668474                  0.331526
      91     O        1          6.599985                 -0.599985
      92     H        2          0.743340                  0.256660
      93     H        2          0.649935                  0.350065
      94     O        1          6.668004                 -0.668004
      95     H        2          0.683730                  0.316270
      96     H        2          0.645294                  0.354706
      97     O        1          6.653757                 -0.653757
      98     H        2          0.715031                  0.284969
      99     H        2          0.626978                  0.373022
     100     O        1          6.595187                 -0.595187
     101     H        2          0.692970                  0.307030
     102     H        2          0.697137                  0.302863
     103     O        1          6.642708                 -0.642708
     104     H        2          0.721875                  0.278125
     105     H        2          0.617958                  0.382042
     106     O        1          6.601985                 -0.601985
     107     H        2          0.690289                  0.309711
     108     H        2          0.746477                  0.253523
     109     O        1          6.631433                 -0.631433
     110     H        2          0.677618                  0.322382
     111     H        2          0.691771                  0.308229
     112     O        1          6.604602                 -0.604602
     113     H        2          0.670545                  0.329455
     114     H        2          0.740056                  0.259944
     115     O        1          6.673038                 -0.673038
     116     H        2          0.676905                  0.323095
     117     H        2          0.654615                  0.345385
     118     O        1          6.692258                 -0.692258
     119     H        2          0.670392                  0.329608
     120     H        2          0.654329                  0.345671
     121     O        1          6.613203                 -0.613203
     122     H        2          0.710562                  0.289438
     123     H        2          0.675392                  0.324608
     124     O        1          6.576372                 -0.576372
     125     H        2          0.686401                  0.313599
     126     H        2          0.736425                  0.263575
     127     O        1          6.622688                 -0.622688
     128     H        2          0.679803                  0.320197
     129     H        2          0.669907                  0.330093
     130     O        1          6.635755                 -0.635755
     131     H        2          0.674981                  0.325019
     132     H        2          0.698709                  0.301291
     133     O        1          6.659652                 -0.659652
     134     H        2          0.718512                  0.281488
     135     H        2          0.615164                  0.384836
     136     O        1          6.578278                 -0.578278
     137     H        2          0.671269                  0.328731
     138     H        2          0.752962                  0.247038
     139     O        1          6.643638                 -0.643638
     140     H        2          0.679220                  0.320780
     141     H        2          0.679354                  0.320646
     142     O        1          6.595090                 -0.595090
     143     H        2          0.706886                  0.293114
     144     H        2          0.700599                  0.299401
     145     O        1          6.664923                 -0.664923
     146     H        2          0.691808                  0.308192
     147     H        2          0.635438                  0.364562
     148     O        1          6.663057                 -0.663057
     149     H        2          0.690593                  0.309407
     150     H        2          0.660237                  0.339763
     151     O        1          6.544638                 -0.544638
     152     H        2          0.735667                  0.264333
     153     H        2          0.716161                  0.283839
     154     O        1          6.603006                 -0.603006
     155     H        2          0.724025                  0.275975
     156     H        2          0.665373                  0.334627
     157     O        1          6.609688                 -0.609688
     158     H        2          0.687504                  0.312496
     159     H        2          0.694470                  0.305530
     160     O        1          6.550374                 -0.550374
     161     H        2          0.693054                  0.306946
     162     H        2          0.723719                  0.276281
     163     O        1          6.582276                 -0.582276
     164     H        2          0.716737                  0.283263
     165     H        2          0.720113                  0.279887
     166     O        1          6.620664                 -0.620664
     167     H        2          0.700086                  0.299914
     168     H        2          0.685075                  0.314925
     169     O        1          6.572463                 -0.572463
     170     H        2          0.711434                  0.288566
     171     H        2          0.703380                  0.296620
     172     O        1          6.619241                 -0.619241
     173     H        2          0.670564                  0.329436
     174     H        2          0.731595                  0.268405
     175     O        1          6.687344                 -0.687344
     176     H        2          0.653116                  0.346884
     177     H        2          0.658788                  0.341212
     178     O        1          6.643473                 -0.643473
     179     H        2          0.677145                  0.322855
     180     H        2          0.660100                  0.339900
     181     O        1          6.567382                 -0.567382
     182     H        2          0.718679                  0.281321
     183     H        2          0.719715                  0.280285
     184     O        1          6.640402                 -0.640402
     185     H        2          0.683186                  0.316814
     186     H        2          0.688807                  0.311193
     187     O        1          6.596604                 -0.596604
     188     H        2          0.665314                  0.334686
     189     H        2          0.739663                  0.260337
     190     O        1          6.641309                 -0.641309
     191     H        2          0.671292                  0.328708
     192     H        2          0.674182                  0.325818
 # Total charge                512.000000                 -0.000000


 !-----------------------------------------------------------------------------!
                           Hirschfeld Charges

  #Atom  Element  Kind  Ref Charge     Population                     Net charge
      1       O      1       6.000          6.544                         -0.544
      2       H      2       1.000          0.720                          0.280
      3       H      2       1.000          0.735                          0.265
      4       O      1       6.000          6.524                         -0.524
      5       H      2       1.000          0.729                          0.271
      6       H      2       1.000          0.714                          0.286
      7       O      1       6.000          6.509                         -0.509
      8       H      2       1.000          0.738                          0.262
      9       H      2       1.000          0.723                          0.277
     10       O      1       6.000          6.501                         -0.501
     11       H      2       1.000          0.737                          0.263
     12       H      2       1.000          0.738                          0.262
     13       O      1       6.000          6.531                         -0.531
     14       H      2       1.000          0.724                          0.276
     15       H      2       1.000          0.726                          0.274
     16       O      1       6.000          6.545                         -0.545
     17       H      2       1.000          0.724                          0.276
     18       H      2       1.000          0.744                          0.256
     19       O      1       6.000          6.536                         -0.536
     20       H      2       1.000          0.743                          0.257
     21       H      2       1.000          0.734                          0.266
     22       O      1       6.000          6.537                         -0.537
     23       H      2       1.000          0.723                          0.277
     24       H      2       1.000          0.731                          0.269
     25       O      1       6.000          6.536                         -0.536
     26       H      2       1.000          0.734                          0.266
     27       H      2       1.000          0.733                          0.267
     28       O      1       6.000          6.528                         -0.528
     29       H      2       1.000          0.737                          0.263
     30       H      2       1.000          0.728                          0.272
     31       O      1       6.000          6.588                         -0.588
     32       H      2       1.000          0.722                          0.278
     33       H      2       1.000          0.748                          0.252
     34       O      1       6.000          6.556                         -0.556
     35       H      2       1.000          0.732                          0.268
     36       H      2       1.000          0.738                          0.262
     37       O      1       6.000          6.521                         -0.521
     38       H      2       1.000          0.731                          0.269
     39       H      2       1.000          0.728                          0.272
     40       O      1       6.000          6.527                         -0.527
     41       H      2       1.000          0.734                          0.266
     42       H      2       1.000          0.728                          0.272
     43       O      1       6.000          6.534                         -0.534
     44       H      2       1.000          0.729                          0.271
     45       H      2       1.000          0.754                          0.246
     46       O      1       6.000          6.522                         -0.522
     47       H      2       1.000          0.743                          0.257
     48       H      2       1.000          0.744                          0.256
     49       O      1       6.000          6.570                         -0.570
     50       H      2       1.000          0.746                          0.254
     51       H      2       1.000          0.734                          0.266
     52       O      1       6.000          6.565                         -0.565
     53       H      2       1.000          0.740                          0.260
     54       H      2       1.000          0.747                          0.253
     55       O      1       6.000          6.509                         -0.509
     56       H      2       1.000          0.728                          0.272
     57       H      2       1.000          0.736                          0.264
     58       O      1       6.000          6.546                         -0.546
     59       H      2       1.000          0.720                          0.280
     60       H      2       1.000          0.738                          0.262
     61       O      1       6.000          6.497                         -0.497
     62       H      2       1.000          0.726                          0.274
     63       H      2       1.000          0.728                          0.272
     64       O      1       6.000          6.539                         -0.539
     65       H      2       1.000          0.739                          0.261
     66       H      2       1.000          0.741                          0.259
     67       O      1       6.000          6.532                         -0.532
     68       H      2       1.000          0.749                          0.251
     69       H      2       1.000          0.744                          0.256
     70       O      1       6.000          6.547                         -0.547
     71       H      2       1.000          0.746                          0.254
     72       H      2       1.000          0.720                          0.280
     73       O      1       6.000          6.508                         -0.508
     74       H      2       1.000          0.742                          0.258
     75       H      2       1.000          0.739                          0.261
     76       O      1       6.000          6.508                         -0.508
     77       H      2       1.000          0.729                          0.271
     78       H      2       1.000          0.732                          0.268
     79       O      1       6.000          6.512                         -0.512
     80       H      2       1.000          0.733                          0.267
     81       H      2       1.000          0.712                          0.288
     82       O      1       6.000          6.557                         -0.557
     83       H      2       1.000          0.742                          0.258
     84       H      2       1.000          0.726                          0.274
     85       O      1       6.000          6.521                         -0.521
     86       H      2       1.000          0.733                          0.267
     87       H      2       1.000          0.720                          0.280
     88       O      1       6.000          6.506                         -0.506
     89       H      2       1.000          0.725                          0.275
     90       H      2       1.000          0.740                          0.260
     91       O      1       6.000          6.535                         -0.535
     92       H      2       1.000          0.726                          0.274
     93       H      2       1.000          0.742                          0.258
     94       O      1       6.000          6.534                         -0.534
     95       H      2       1.000          0.726                          0.274
     96       H      2       1.000          0.728                          0.272
     97       O      1       6.000          6.538                         -0.538
     98       H      2       1.000          0.717                          0.283
     99       H      2       1.000          0.740                          0.260
    100       O      1       6.000          6.513                         -0.513
    101       H      2       1.000          0.731                          0.269
    102       H      2       1.000          0.730                          0.270
    103       O      1       6.000          6.516                         -0.516
    104       H      2       1.000          0.725                          0.275
    105       H      2       1.000          0.724                          0.276
    106       O      1       6.000          6.552                         -0.552
    107       H      2       1.000          0.739                          0.261
[...]
    184       O      1       6.000          6.561                         -0.561
    185       H      2       1.000          0.727                          0.273
    186       H      2       1.000          0.755                          0.245
    187       O      1       6.000          6.546                         -0.546
    188       H      2       1.000          0.738                          0.262
    189       H      2       1.000          0.730                          0.270
    190       O      1       6.000          6.517                         -0.517
    191       H      2       1.000          0.746                          0.254
    192       H      2       1.000          0.739                          0.261

  Total Charge                                                            -0.000
 !-----------------------------------------------------------------------------!
  
  Eigenvalues of the occupied subspace spin            1
 ---------------------------------------------
      -1.16165767     -1.15814745     -1.15674311     -1.15404050
      -1.15240836     -1.15073741     -1.14954832     -1.14890427
      -1.14857117     -1.14616239     -1.14428774     -1.14258815
      -1.14118654     -1.13965986     -1.13899583     -1.13872900
      -1.13757897     -1.13652218     -1.13387942     -1.13330763
      -1.13245854     -1.13137129     -1.12979814     -1.12888721
      -1.12823585     -1.12697563     -1.12680708     -1.12602755
      -1.12548641     -1.12259168     -1.12191048     -1.12153936
      -1.12115222     -1.12058927     -1.12021556     -1.11905705
      -1.11823243     -1.11651838     -1.11607490     -1.11484959
      -1.11337334     -1.11309861     -1.11216469     -1.11182480
      -1.11024951     -1.10930524     -1.10774702     -1.10709967
      -1.10643553     -1.10568423     -1.10389506     -1.10231168
      -1.09970766     -1.09928077     -1.09733283     -1.09417849
      -1.09307227     -1.09126194     -1.08961448     -1.08656539
      -1.08570442     -1.08225562     -1.07424788     -1.06684174
      -0.58770128     -0.58110683     -0.57815780     -0.57610620
      -0.57551824     -0.57423575     -0.57349441     -0.57287697
      -0.57024309     -0.56903174     -0.56798061     -0.56723554
      -0.56613311     -0.56419568     -0.56386060     -0.56140659
      -0.56056747     -0.55918050     -0.55873891     -0.55825337
      -0.55631320     -0.55569244     -0.55508258     -0.55328793
      -0.55176057     -0.55101385     -0.54956365     -0.54933189
      -0.54875809     -0.54764442     -0.54697143     -0.54498516
      -0.54415651     -0.54291203     -0.54174222     -0.54062504
      -0.54048840     -0.54011514     -0.53964625     -0.53910961
      -0.53886049     -0.53813820     -0.53772769     -0.53703658
      -0.53506887     -0.53397600     -0.53358762     -0.53164141
      -0.53138061     -0.53062682     -0.53006943     -0.52879445
      -0.52680281     -0.52495482     -0.52367989     -0.51904136
      -0.51820227     -0.51573374     -0.51337479     -0.51081093
      -0.50957351     -0.50584790     -0.50351071     -0.48545434
      -0.47171415     -0.46764928     -0.46363332     -0.46274379
      -0.46122599     -0.45831441     -0.45752195     -0.45361703
      -0.45277514     -0.45104922     -0.44995963     -0.44676214
      -0.44244529     -0.44201257     -0.43767861     -0.43563413
      -0.43495932     -0.43427653     -0.43376136     -0.43226216
      -0.42943810     -0.42720222     -0.42425794     -0.42262285
      -0.42195616     -0.41962972     -0.41819310     -0.41632001
      -0.41284746     -0.41194192     -0.40993576     -0.40791878
      -0.40671304     -0.40569425     -0.40546888     -0.40402372
      -0.40179104     -0.40132561     -0.39890705     -0.39792438
      -0.39607338     -0.39545862     -0.39364423     -0.39244300
      -0.39119105     -0.39027302     -0.38834023     -0.38534965
      -0.38446563     -0.38409946     -0.38236792     -0.38026496
      -0.37931544     -0.37851657     -0.37817034     -0.37559392
      -0.37214651     -0.37062764     -0.36960491     -0.36896791
      -0.36702926     -0.36525949     -0.35784203     -0.35120889
      -0.35035504     -0.34850042     -0.34581719     -0.34445421
      -0.34369073     -0.34332800     -0.34263166     -0.34172202
      -0.34050718     -0.33983750     -0.33966168     -0.33827333
      -0.33709201     -0.33612535     -0.33548865     -0.33521069
      -0.33467778     -0.33447054     -0.33298514     -0.33238907
      -0.33143164     -0.33127308     -0.33082575     -0.33036209
      -0.33018976     -0.32906876     -0.32876852     -0.32836351
      -0.32757742     -0.32747426     -0.32670328     -0.32607917
      -0.32590000     -0.32568527     -0.32463883     -0.32292050
      -0.32209728     -0.32127930     -0.32088211     -0.32070580
      -0.31957034     -0.31858460     -0.31845659     -0.31758543
      -0.31698410     -0.31630520     -0.31531994     -0.31431259
      -0.31415848     -0.31326402     -0.31252778     -0.31155267
      -0.31103428     -0.30973804     -0.30891955     -0.30821086
      -0.30562061     -0.30317737     -0.30192544     -0.30044648
      -0.29936925     -0.29907127     -0.29178963     -0.29049770
 Fermi Energy [eV] :   -7.904844
  
  Lowest Eigenvalues of the unoccupied subspace spin            1
 -----------------------------------------------------
  Reached convergence in          159  iterations 
       0.16369502      0.21207217      0.22000553      0.22330754
  
 HOMO - LUMO gap [eV] :   12.359212

 ENERGY| Total FORCE_EVAL ( QS ) energy (a.u.):            -1101.569333820697921


 -------------------------------------------------------------------------------
 -                                                                             -
 -                                DBCSR STATISTICS                             -
 -                                                                             -
 -------------------------------------------------------------------------------
 COUNTER                                      CPU                  ACC      ACC%
 number of processed stacks                285533                    0       0.0
 matmuls inhomo. stacks                         0                    0       0.0
 matmuls total                           19465445                    0       0.0
 flops   4 x    4 x    4                   100992                    0       0.0
 flops  36 x    4 x   36                   829440                    0       0.0
 flops  36 x    4 x   32                  5160960                    0       0.0
 flops  32 x    4 x   36                  5160960                    0       0.0
 flops   4 x    4 x  184                 14649344                    0       0.0
 flops  36 x   36 x  184                 15261696                    0       0.0
 flops 184 x    4 x    4                 22515712                    0       0.0
 flops  36 x    4 x  184                 33914880                    0       0.0
 flops 184 x    4 x   36                 33914880                    0       0.0
 flops  32 x    4 x   32                 34209792                    0       0.0
 flops   5 x   32 x   32                 94371840                    0       0.0
 flops  32 x   36 x  184                 94961664                    0       0.0
 flops  36 x   32 x  184                 94961664                    0       0.0
 flops  13 x   32 x   32                122683392                    0       0.0
 flops  32 x    4 x  184                223084544                    0       0.0
 flops 184 x    4 x   32                223084544                    0       0.0
 flops 184 x   36 x  184                624033792                    0       0.0
 flops   5 x    4 x    5                961377200                    0       0.0
 flops   5 x    5 x   32               1066316800                    0       0.0
 flops  13 x    4 x    5               1230139040                    0       0.0
 flops   5 x    4 x   13               1230139040                    0       0.0
 flops  13 x    5 x   32               1352366080                    0       0.0
 flops   5 x   13 x   32               1357690880                    0       0.0
 flops 184 x    4 x  184               1386741760                    0       0.0
 flops  13 x    4 x   13               1564245072                    0       0.0
 flops  13 x   13 x   32               1757383680                    0       0.0
 flops  32 x   32 x   32               2885681152                    0       0.0
 flops   5 x   32 x    5               5143219200                    0       0.0
 flops  13 x   32 x    5               6581053440                    0       0.0
 flops   5 x   32 x   13               6581053440                    0       0.0
 flops  32 x   32 x  184               8223981568                    0       0.0
 flops 184 x   32 x   32               8296333312                    0       0.0
 flops  13 x   32 x   13               8368468992                    0       0.0
 flops 184 x   32 x  184              14976811008                    0       0.0
 flops total                          74605901760                    0       0.0
 marketing flops                      85595353088
 -------------------------------------------------------------------------------

 -------------------------------------------------------------------------------
 ----                             MULTIGRID INFO                            ----
 -------------------------------------------------------------------------------
 count for grid        1:          38071          cutoff [a.u.]          200.00
 count for grid        2:          57438          cutoff [a.u.]           66.67
 count for grid        3:          57763          cutoff [a.u.]           22.22
 count for grid        4:          11599          cutoff [a.u.]            7.41
 total gridlevel count  :         164871

 -------------------------------------------------------------------------------
 -                                                                             -
 -                         MESSAGE PASSING PERFORMANCE                         -
 -                                                                             -
 -------------------------------------------------------------------------------

 ROUTINE             CALLS  TOT TIME [s]  AVE VOLUME [Bytes]  PERFORMANCE [MB/s]
 MP_Group                5         0.000
 MP_Bcast             4047         0.037              66110.             7204.61
 MP_Allreduce         8215        10.616                167.                0.13
 MP_Gather               4         0.001               1792.                7.08
 MP_Sync               195        65.335
 MP_Alltoall          8559         5.791             197425.              291.79
 MP_ISendRecv         3654         0.007              49479.            26693.49
 MP_Wait            202240         1.967
 MP_comm_split         143         0.020
 MP_ISend            89730         0.156              29944.            17243.49
 MP_IRecv            89730         0.103              29770.            25831.87
 MP_Recv                 7         0.000             376832.             6079.03
 MP_Memory           57812        12.586
 -------------------------------------------------------------------------------


 -------------------------------------------------------------------------------
 -                                                                             -
 -                           R E F E R E N C E S                               -
 -                                                                             -
 -------------------------------------------------------------------------------
 
 CP2K version 2.6, the CP2K developers group (2014).
 CP2K is freely available from http://www.cp2k.org/ .

 Borstnik, U; VandeVondele, J; Weber, V; Hutter, J. 
 PARALLEL COMPUTING, 40 (5-6), 47-58 (2014). 
 Sparse matrix multiplication: The distributed block-compressed sparse
 row library.
 http://dx.doi.org/10.1016/j.parco.2014.03.012


 Hutter, J; Iannuzzi, M; Schiffmann, F; VandeVondele, J. 
 WILEY INTERDISCIPLINARY REVIEWS-COMPUTATIONAL MOLECULAR SCIENCE, 4 (1), 15-25 (2014). 
 CP2K: atomistic simulations of condensed matter systems.
 http://dx.doi.org/10.1002/wcms.1159


 Grimme, S; Ehrlich, S; Goerigk, L. 
 JOURNAL OF COMPUTATIONAL CHEMISTRY, 32, 1456 (2011). 
 Effect of the damping function in dispersion corrected density functional theory.
 http://dx.doi.org/10.1002/jcc.21759


 Grimme, S; Antony, J; Ehrlich, S; Krieg, H. 
 JOURNAL OF CHEMICAL PHYSICS, 132 (15), 154104 (2010). 
 A consistent and accurate ab initio parametrization of density
 functional dispersion correction (DFT-D) for the 94 elements H-Pu.
 http://dx.doi.org/10.1063/1.3382344


 Guidon, M; Hutter, J; VandeVondele, J. 
 JOURNAL OF CHEMICAL THEORY AND COMPUTATION, 5 (11), 3010-3021 (2009). 
 Robust Periodic Hartree-Fock Exchange for Large-Scale Simulations Using
 Gaussian Basis Sets.
 http://dx.doi.org/10.1021/ct900494g


 Guidon, M; Schiffmann, F; Hutter, J; VandeVondele, J. 
 JOURNAL OF CHEMICAL PHYSICS, 128 (21), 214104 (2008). 
 Ab initio molecular dynamics using hybrid density functionals.
 http://dx.doi.org/10.1063/1.2931945


 Krack, M. 
 THEORETICAL CHEMISTRY ACCOUNTS, 114 (1-3), 145-152 (2005). 
 Pseudopotentials for H to Kr optimized for gradient-corrected
 exchange-correlation functionals.
 http://dx.doi.org/10.1007/s00214-005-0655-y


 VandeVondele, J; Krack, M; Mohamed, F; Parrinello, M; Chassaing, T;
 Hutter, J. COMPUTER PHYSICS COMMUNICATIONS, 167 (2), 103-128 (2005). 
 QUICKSTEP: Fast and accurate density functional calculations using a
 mixed Gaussian and plane waves approach.
 http://dx.doi.org/10.1016/j.cpc.2004.12.014


 Frigo, M; Johnson, SG. 
 PROCEEDINGS OF THE IEEE, 93 (2), 216-231 (2005). 
 The design and implementation of FFTW3.
 http://dx.doi.org/10.1109/JPROC.2004.840301


 VandeVondele, J; Hutter, J. 
 JOURNAL OF CHEMICAL PHYSICS, 118 (10), 4365-4369 (2003). 
 An efficient orbital transformation method for electronic structure
 calculations.
 http://dx.doi.org/10.1063/1.1543154


 Hartwigsen, C; Goedecker, S; Hutter, J. 
 PHYSICAL REVIEW B, 58 (7), 3641-3662 (1998). 
 Relativistic separable dual-space Gaussian pseudopotentials from H to Rn.
 http://dx.doi.org/10.1103/PhysRevB.58.3641


 Lippert, G; Hutter, J; Parrinello, M. 
 MOLECULAR PHYSICS, 92 (3), 477-487 (1997). 
 A hybrid Gaussian and plane wave density functional scheme.
 http://dx.doi.org/10.1080/002689797170220


 Perdew, JP; Burke, K; Ernzerhof, M. 
 PHYSICAL REVIEW LETTERS, 77 (18), 3865-3868 (1996). 
 Generalized gradient approximation made simple.
 http://dx.doi.org/10.1103/PhysRevLett.77.3865


 Goedecker, S; Teter, M; Hutter, J. 
 PHYSICAL REVIEW B, 54 (3), 1703-1710 (1996). 
 Separable dual-space Gaussian pseudopotentials.
 http://dx.doi.org/10.1103/PhysRevB.54.1703


 -------------------------------------------------------------------------------
 -                                                                             -
 -                                T I M I N G                                  -
 -                                                                             -
 -------------------------------------------------------------------------------
 SUBROUTINE                       CALLS  ASD         SELF TIME        TOTAL TIME
                                MAXIMUM       AVERAGE  MAXIMUM  AVERAGE  MAXIMUM
 CP2K                                 1  1.0    0.031    0.039  134.365  134.372
 qs_energies_scf                      1  2.0    0.000    0.000  129.264  129.265
 scf_env_do_scf                       1  3.0    0.000    0.000  102.320  102.321
 qs_ks_update_qs_env                 10  5.0    0.000    0.000   99.503   99.505
 rebuild_ks_matrix                    9  6.0    0.000    0.000   99.500   99.503
 qs_ks_build_kohn_sham_matrix         9  7.0    0.002    0.003   99.500   99.502
 hfx_ks_matrix                        9  8.0    0.000    0.000   97.418   97.424
 integrate_four_center                9  9.0   37.557   44.205   97.413   97.419
 scf_env_do_scf_inner_loop            9  4.0    0.000    0.001   74.284   74.325
 integrate_four_center_getP           9 10.0   34.606   36.157   34.606   36.157
 init_scf_loop                        1  4.0    0.000    0.000   27.995   27.995
 integrate_four_center_main           9 10.0    0.005    0.005   18.186   21.015
 integrate_four_center_bin          603 11.0   18.181   21.011   18.181   21.011
 dbcsr_mm_cannon_multiply          2469  8.0    1.100    1.337   19.575   19.776
 scf_post_calculation_gpw             1  3.0    0.000    0.000   18.865   18.865
 make_lumo                            1  4.0    0.000    0.000   18.745   18.745
 ot_eigensolver                       1  5.0    0.008    0.009   18.732   18.732
 ot_mini                            168  6.1    0.002    0.003   10.064   10.071
 cannon_multiply_low               2469  9.0    0.884    1.067    8.728    9.173
 qs_ot_get_derivative                89  7.1    0.002    0.003    8.999    9.019
 integrate_four_center_load           9 10.0    0.000    0.000    6.836    7.742
 hfx_load_balance                     1 11.0    0.001    0.001    6.836    7.742
 dbcsr_make_images                 4938  9.0    0.013    0.014    6.882    7.036
 make_images                       4938 10.0    0.176    0.216    6.869    7.023
 dbcsr_data_new                   84662 10.9    0.180    0.218    5.075    5.667
 hfx_load_balance_range               1 12.0    4.718    5.624    4.718    5.624
 internal_data_allocate           51382 12.0    4.898    5.452    4.898    5.452
 qs_energies_init_hamiltonians        1  3.0    0.000    0.000    5.230    5.230
 qs_env_update_s_mstruct              1  4.0    0.000    0.000    5.184    5.184
 calculate_rho_core                   1  5.0    2.001    3.549    5.161    5.161
 qs_ot_get_derivative_diag           66  8.0    0.005    0.006    5.100    5.113
 quickstep_create_force_env           1  2.0    0.003    0.004    5.054    5.059
 qs_init_subsys                       1  3.0    0.001    0.001    4.945    4.945
 qs_env_setup                         1  4.0    0.000    0.000    4.697    4.895
 qs_env_rebuild_pw_env                2  3.5    0.000    0.000    4.696    4.894
 pw_env_rebuild                       1  6.0    2.188    2.386    4.696    4.894
 rs_pw_transfer                      79  9.3    0.002    0.002    2.744    4.767
 qs_ot_get_p                        173  6.1    0.002    0.003    4.306    4.391
 rs_pw_transfer_RS2PW_200            12  8.8    2.337    4.360    2.337    4.360
 dbcsr_create_new                 36434  9.8    0.171    0.194    3.874    4.037
 qs_rho_update_rho                   10  5.0    0.000    0.000    3.652    3.652
 calculate_rho_elec                  10  6.0    0.325    0.341    3.652    3.652
 dbcsr_data_release              151670 11.2    0.160    0.189    3.305    3.522
 internal_data_deallocate         51382 12.2    3.148    3.371    3.148    3.371
 setup_buffer_matrices             4938 10.0    1.730    1.841    2.649    2.891
 init_scf_run                         1  3.0    0.000    0.000    2.848    2.848
 scf_env_initial_rho_setup            1  4.0    0.000    0.000    2.848    2.848
 rs_distribute_matrix                19  8.4    2.477    2.754    2.482    2.758
 rs_grid_zero                        61  8.8    0.355    2.728    0.355    2.728
 -------------------------------------------------------------------------------

  **** **** ******  **  PROGRAM ENDED AT                 2015-03-10 12:09:28.727
 ***** ** ***  *** **   PROGRAM RAN ON                                      n255
 **    ****   ******    PROGRAM RAN BY                                     bja39
 ***** **    ** ** **   PROGRAM PROCESS ID                                 13704
  **** **  *******  **  PROGRAM STOPPED IN /home/dlambrecht/bja39/cp2k/hfx/hfx70
