 DBCSR| Multiplication driver                                                SMM
 DBCSR| Multrec recursion limit                                              512
 DBCSR| Multiplication stack size                                           1000
 DBCSR| Multiplication size stacks                                             3
 DBCSR| Use subcommunicators                                                   T
 DBCSR| Use MPI combined types                                                 F
 DBCSR| Use MPI memory allocation                                              T
 DBCSR| Use Communication thread                                               T
 DBCSR| Communication thread load                                             87


  **** **** ******  **  PROGRAM STARTED AT               2015-03-10 11:52:23.585
 ***** ** ***  *** **   PROGRAM STARTED ON                                  n267
 **    ****   ******    PROGRAM STARTED BY                                 bja39
 ***** **    ** ** **   PROGRAM PROCESS ID                                 84872
  **** **  *******  **  PROGRAM STARTED IN /home/dlambrecht/bja39/cp2k/hfx/hfx35

 CP2K| version string:                                          CP2K version 2.6
 CP2K| source code revision number:                                  git:9520686
 CP2K| is freely available from                             http://www.cp2k.org/
 CP2K| Program compiled at                          Fri Feb 27 09:44:54 EST 2015
 CP2K| Program compiled on                            login0a.frank.sam.pitt.edu
 CP2K| Program compiled for                                                Frank
 CP2K| Input file name                                                 hfx35.inp
 
 GLOBAL| Force Environment number                                              1
 GLOBAL| Basis set file name                                           HFX_BASIS
 GLOBAL| Geminal file name                                         BASIS_GEMINAL
 GLOBAL| Potential file name                                      GTH_POTENTIALS
 GLOBAL| MM Potential file name                                     MM_POTENTIAL
 GLOBAL| Coordinate file name                                          water.xyz
 GLOBAL| Method name                                                        CP2K
 GLOBAL| Project name                                                      WATER
 GLOBAL| Preferred FFT library                                             FFTW3
 GLOBAL| Preferred diagonalization lib.                                       SL
 GLOBAL| Run type                                                         ENERGY
 GLOBAL| All-to-all communication in single precision                          F
 GLOBAL| FFTs using library dependent lengths                                  F
 GLOBAL| Global print level                                               MEDIUM
 GLOBAL| Total number of message passing processes                            64
 GLOBAL| Number of threads for this process                                    1
 GLOBAL| This output is from process                                           0

 MEMORY| system memory details [Kb]
 MEMORY|                        rank 0           min           max       average
 MEMORY| MemTotal             32978248      32978248      32989296      32986534
 MEMORY| MemFree               3436008       3412572      11412692       6495026
 MEMORY| Buffers                221372           800        435104        192571
 MEMORY| Cached               21096328      17029516      25672428      20554770
 MEMORY| Slab                  6918692        322084       7585428       4401051
 MEMORY| SReclaimable          5952964        208668       6869088       3853362
 MEMORY| MemLikelyFree        30706672      30683236      31544016      31095730


 *** Fundamental physical constants (SI units) ***

 *** Literature: B. J. Mohr and B. N. Taylor,
 ***             CODATA recommended values of the fundamental physical
 ***             constants: 2006, Web Version 5.1
 ***             http://physics.nist.gov/constants

 Speed of light in vacuum [m/s]                             2.99792458000000E+08
 Magnetic constant or permeability of vacuum [N/A**2]       1.25663706143592E-06
 Electric constant or permittivity of vacuum [F/m]          8.85418781762039E-12
 Planck constant (h) [J*s]                                  6.62606896000000E-34
 Planck constant (h-bar) [J*s]                              1.05457162825177E-34
 Elementary charge [C]                                      1.60217648700000E-19
 Electron mass [kg]                                         9.10938215000000E-31
 Electron g factor [ ]                                     -2.00231930436220E+00
 Proton mass [kg]                                           1.67262163700000E-27
 Fine-structure constant                                    7.29735253760000E-03
 Rydberg constant [1/m]                                     1.09737315685270E+07
 Avogadro constant [1/mol]                                  6.02214179000000E+23
 Boltzmann constant [J/K]                                   1.38065040000000E-23
 Atomic mass unit [kg]                                      1.66053878200000E-27
 Bohr radius [m]                                            5.29177208590000E-11

 *** Conversion factors ***

 [u] -> [a.u.]                                              1.82288848426455E+03
 [Angstrom] -> [Bohr] = [a.u.]                              1.88972613288564E+00
 [a.u.] = [Bohr] -> [Angstrom]                              5.29177208590000E-01
 [a.u.] -> [s]                                              2.41888432650478E-17
 [a.u.] -> [fs]                                             2.41888432650478E-02
 [a.u.] -> [J]                                              4.35974393937059E-18
 [a.u.] -> [N]                                              8.23872205491840E-08
 [a.u.] -> [K]                                              3.15774647902944E+05
 [a.u.] -> [kJ/mol]                                         2.62549961709828E+03
 [a.u.] -> [kcal/mol]                                       6.27509468713739E+02
 [a.u.] -> [Pa]                                             2.94210107994716E+13
 [a.u.] -> [bar]                                            2.94210107994716E+08
 [a.u.] -> [atm]                                            2.90362800883016E+08
 [a.u.] -> [eV]                                             2.72113838565563E+01
 [a.u.] -> [Hz]                                             6.57968392072181E+15
 [a.u.] -> [1/cm] (wave numbers)                            2.19474631370540E+05
 [a.u./Bohr**2] -> [1/cm]                                   5.14048714338585E+03
 

 CELL_TOP| Volume [angstrom^3]:                                         1915.864
 CELL_TOP| Vector a [angstrom    12.420     0.000     0.000    |a| =      12.420
 CELL_TOP| Vector b [angstrom     0.000    12.420     0.000    |b| =      12.420
 CELL_TOP| Vector c [angstrom     0.000     0.000    12.420    |c| =      12.420
 CELL_TOP| Angle (b,c), alpha [degree]:                                   90.000
 CELL_TOP| Angle (a,c), beta  [degree]:                                   90.000
 CELL_TOP| Angle (a,b), gamma [degree]:                                   90.000
 CELL_TOP| Numerically orthorhombic:                                         YES
 
 GENERATE|  Preliminary Number of Bonds generated:                             0
 GENERATE|  Achieved consistency in connectivity generation.

 CELL| Volume [angstrom^3]:                                             1915.864
 CELL| Vector a [angstrom]:      12.420     0.000     0.000    |a| =      12.420
 CELL| Vector b [angstrom]:       0.000    12.420     0.000    |b| =      12.420
 CELL| Vector c [angstrom]:       0.000     0.000    12.420    |c| =      12.420
 CELL| Angle (b,c), alpha [degree]:                                       90.000
 CELL| Angle (a,c), beta  [degree]:                                       90.000
 CELL| Angle (a,b), gamma [degree]:                                       90.000
 CELL| Numerically orthorhombic:                                             YES

 CELL_REF| Volume [angstrom^3]:                                         1915.864
 CELL_REF| Vector a [angstrom    12.420     0.000     0.000    |a| =      12.420
 CELL_REF| Vector b [angstrom     0.000    12.420     0.000    |b| =      12.420
 CELL_REF| Vector c [angstrom     0.000     0.000    12.420    |c| =      12.420
 CELL_REF| Angle (b,c), alpha [degree]:                                   90.000
 CELL_REF| Angle (a,c), beta  [degree]:                                   90.000
 CELL_REF| Angle (a,b), gamma [degree]:                                   90.000
 CELL_REF| Numerically orthorhombic:                                         YES

 *******************************************************************************
 *******************************************************************************
 **                                                                           **
 **     #####                         ##              ##                      **
 **    ##   ##            ##          ##              ##                      **
 **   ##     ##                       ##            ######                    **
 **   ##     ##  ##   ##  ##   #####  ##  ##   ####   ##    #####    #####    **
 **   ##     ##  ##   ##  ##  ##      ## ##   ##      ##   ##   ##  ##   ##   **
 **   ##  ## ##  ##   ##  ##  ##      ####     ###    ##   ######   ######    **
 **    ##  ###   ##   ##  ##  ##      ## ##      ##   ##   ##       ##        **
 **     #######   #####   ##   #####  ##  ##  ####    ##    #####   ##        **
 **           ##                                                    ##        **
 **                                                                           **
 **                                                ... make the atoms dance   **
 **                                                                           **
 **            Copyright (C) by CP2K Developers Group (2000 - 2014)           **
 **                                                                           **
 *******************************************************************************

 DFT| Spin restricted Kohn-Sham (RKS) calculation                            RKS
 DFT| Multiplicity                                                             1
 DFT| Number of spin states                                                    1
 DFT| Charge                                                                   0
 DFT| Self-interaction correction (SIC)                                       NO
 DFT| Cutoffs: density                                              1.000000E-10
 DFT|          gradient                                             1.000000E-10
 DFT|          tau                                                  1.000000E-10
 DFT|          cutoff_smoothing_range                               0.000000E+00
 DFT| XC density smoothing                                                  NONE
 DFT| XC derivatives                                                          PW
 FUNCTIONAL| ROUTINE=NEW
 FUNCTIONAL| PBE:
 FUNCTIONAL| J.P.Perdew, K.Burke, M.Ernzerhof, Phys. Rev. Letter, vol. 77, n 18,
 FUNCTIONAL|  pp. 3865-3868, (1996)sx=0.650sc=1.000{spin unpolarized}
 vdW POTENTIAL|                                                   Pair Potential
 vdW POTENTIAL|          DFT-D3 (Version 3.1)
 vdW POTENTIAL|          Potential Form: S. Grimme et al, JCP 132: 154104 (2010)
 vdW POTENTIAL|          Zero Damping
 vdW POTENTIAL|          Cutoff Radius [Bohr]:                             30.24
 vdW POTENTIAL|          s6 Scaling Factor:                               1.0000
 vdW POTENTIAL|          sr6 Scaling Factor:                              1.2870
 vdW POTENTIAL|          s8 Scaling Factor:                               0.9280
 vdW POTENTIAL|          Cutoff for CN calculation:                   0.1000E-05

 QS| Method:                                                                 GPW
 QS| Density plane wave grid type                        NON-SPHERICAL FULLSPACE
 QS| Number of grid levels:                                                    4
 QS| Density cutoff [a.u.]:                                                200.0
 QS| Multi grid cutoff [a.u.]: 1) grid level                               200.0
 QS|                           2) grid level                                66.7
 QS|                           3) grid level                                22.2
 QS|                           4) grid level                                 7.4
 QS| Grid level progression factor:                                          3.0
 QS| Relative density cutoff [a.u.]:                                        20.0
 QS| Consistent realspace mapping and integration 
 QS| Interaction thresholds: eps_pgf_orb:                                1.0E-05
 QS|                         eps_filter_matrix:                          0.0E+00
 QS|                         eps_core_charge:                            1.0E-12
 QS|                         eps_rho_gspace:                             1.0E-10
 QS|                         eps_rho_rspace:                             1.0E-10
 QS|                         eps_gvg_rspace:                             1.0E-05
 QS|                         eps_ppl:                                    1.0E-02
 QS|                         eps_ppnl:                                   1.0E-07


 ATOMIC KIND INFORMATION

  1. Atomic kind: O                                     Number of atoms:      64

     Orbital Basis Set                                                  DZVP-GTH

       Number of orbital shell sets:                                           3
       Number of orbital shells:                                               5
       Number of primitive Cartesian functions:                                5
       Number of Cartesian basis functions:                                   14
       Number of spherical basis functions:                                   13
       Norm type:                                                              2

       Normalised Cartesian orbitals:

                        Set   Shell   Orbital            Exponent    Coefficient

                          1       1    2s                8.304386       0.778600
                                                         2.457948      -0.081348
                                                         0.759737      -0.597925

                          1       2    3px               8.304386      -2.634104
                                                         2.457948      -1.739269
                                                         0.759737      -0.632383
                          1       2    3py               8.304386      -2.634104
                                                         2.457948      -1.739269
                                                         0.759737      -0.632383
                          1       2    3pz               8.304386      -2.634104
                                                         2.457948      -1.739269
                                                         0.759737      -0.632383

                          2       1    2s                0.213639       0.223960

                          2       2    3px               0.213639       0.207033
                          2       2    3py               0.213639       0.207033
                          2       2    3pz               0.213639       0.207033

                          3       1    3dx2              1.185000       2.215218
                          3       1    3dxy              1.185000       3.836871
                          3       1    3dxz              1.185000       3.836871
                          3       1    3dy2              1.185000       2.215218
                          3       1    3dyz              1.185000       3.836871
                          3       1    3dz2              1.185000       2.215218

     Potential information for                                        GTH-PBE-q6

       Description:                       Goedecker-Teter-Hutter pseudopotential
                                           Goedecker et al., PRB 54, 1703 (1996)
                                          Hartwigsen et al., PRB 58, 3641 (1998)
                                                      Krack, TCA 114, 145 (2005)

       Gaussian exponent of the core charge distribution:               8.360253
       Electronic configuration (s p d ...):                               2   4

       Parameters of the local part of the GTH pseudopotential:

                          rloc        C1          C2          C3          C4
                        0.244554  -16.667215    2.487311

       Parameters of the non-local part of the GTH pseudopotential:

                   l      r(l)      h(i,j,l)

                   0    0.220956   18.337458
                   1    0.211332

  2. Atomic kind: H                                     Number of atoms:     128

     Orbital Basis Set                                                  DZVP-GTH

       Number of orbital shell sets:                                           3
       Number of orbital shells:                                               3
       Number of primitive Cartesian functions:                                5
       Number of Cartesian basis functions:                                    5
       Number of spherical basis functions:                                    5
       Norm type:                                                              2

       Normalised Cartesian orbitals:

                        Set   Shell   Orbital            Exponent    Coefficient

                          1       1    1s                8.374435      -0.191705
                                                         1.805868      -0.285532
                                                         0.485253      -0.319237

                          2       1    1s                0.165824       0.185202

                          3       1    2px               0.727000       0.956881
                          3       1    2py               0.727000       0.956881
                          3       1    2pz               0.727000       0.956881

     Potential information for                                        GTH-PBE-q1

       Description:                       Goedecker-Teter-Hutter pseudopotential
                                           Goedecker et al., PRB 54, 1703 (1996)
                                          Hartwigsen et al., PRB 58, 3641 (1998)
                                                      Krack, TCA 114, 145 (2005)

       Gaussian exponent of the core charge distribution:              12.500000
       Electronic configuration (s p d ...):                                   1

       Parameters of the local part of the GTH pseudopotential:

                          rloc        C1          C2          C3          C4
                        0.200000   -4.178900    0.724463


 MOLECULE KIND INFORMATION


 All atoms are their own molecule, skipping detailed information


 TOTAL NUMBERS AND MAXIMUM NUMBERS

  Total number of            - Atomic kinds:                                   2
                             - Atoms:                                        192
                             - Shell sets:                                   576
                             - Shells:                                       704
                             - Primitive Cartesian functions:                960
                             - Cartesian basis functions:                   1536
                             - Spherical basis functions:                   1472

  Maximum angular momentum of- Orbital basis functions:                        2
                             - Local part of the GTH pseudopotential:          2
                             - Non-local part of the GTH pseudopotential:      0


 MODULE QUICKSTEP:  ATOMIC COORDINATES IN angstrom

  Atom  Kind  Element       X           Y           Z          Z(eff)       Mass

       1     1 O    8    3.858587   -4.753318    5.509197      6.00      15.9994
       2     2 H    1    4.210995   -5.556871    5.999459      1.00       1.0079
       3     2 H    1    3.094708   -4.317266    5.913595      1.00       1.0079
       4     1 O    8   -3.546076    1.745624    4.288021      6.00      15.9994
       5     2 H    1   -3.357258    0.836994    4.152946      1.00       1.0079
       6     2 H    1   -3.608914    1.943698    5.269839      1.00       1.0079
       7     1 O    8    4.569136    2.934327   -7.099972      6.00      15.9994
       8     2 H    1    3.678596    3.229107   -6.804983      1.00       1.0079
       9     2 H    1    4.495367    2.784591   -8.045803      1.00       1.0079
      10     1 O    8   -2.573180   -0.106310   -3.414714      6.00      15.9994
      11     2 H    1   -2.038669    0.415523   -2.828965      1.00       1.0079
      12     2 H    1   -1.889161   -0.614820   -3.928063      1.00       1.0079
      13     1 O    8   -3.762503   -7.710594    5.627998      6.00      15.9994
      14     2 H    1   -4.634354   -7.419980    5.987479      1.00       1.0079
      15     2 H    1   -3.852063   -7.634849    4.660781      1.00       1.0079
      16     1 O    8   -6.713126   -0.075920    2.317684      6.00      15.9994
      17     2 H    1   -6.041585   -0.456040    3.007998      1.00       1.0079
      18     2 H    1   -6.258264    0.734307    1.958295      1.00       1.0079
      19     1 O    8    4.010954   -5.581769   -0.412691      6.00      15.9994
      20     2 H    1    3.332131   -5.616691    0.307694      1.00       1.0079
      21     2 H    1    3.905154   -4.753344   -0.836952      1.00       1.0079
      22     1 O    8   -2.669263   -3.081051   -1.225935      6.00      15.9994
      23     2 H    1   -3.248632   -2.449171   -1.738693      1.00       1.0079
      24     2 H    1   -2.191896   -2.598852   -0.576307      1.00       1.0079
      25     1 O    8    5.457624   -3.168804    3.100260      6.00      15.9994
      26     2 H    1    4.685499   -3.245800    3.622418      1.00       1.0079
      27     2 H    1    5.257937   -3.050750    2.131140      1.00       1.0079
      28     1 O    8    2.007879    3.802589   -6.644120      6.00      15.9994
      29     2 H    1    1.380904    3.070273   -6.803869      1.00       1.0079
      30     2 H    1    1.836607    4.066629   -5.709998      1.00       1.0079
      31     1 O    8    4.060883   -3.892921   -3.059677      6.00      15.9994
      32     2 H    1    3.233271   -3.720667   -3.695376      1.00       1.0079
      33     2 H    1    4.336690   -2.982510   -2.984822      1.00       1.0079
      34     1 O    8    1.977359   -1.844229    1.022567      6.00      15.9994
      35     2 H    1    1.565064   -2.471360    1.649594      1.00       1.0079
      36     2 H    1    1.619481   -1.913312    0.065695      1.00       1.0079
      37     1 O    8    0.733845   -5.743288   -5.010069      6.00      15.9994
      38     2 H    1    1.479577   -6.329923   -4.818933      1.00       1.0079
      39     2 H    1    0.449115   -5.709569   -5.947356      1.00       1.0079
      40     1 O    8   -7.516646   -8.678106   -3.237157      6.00      15.9994
      41     2 H    1   -7.873766   -9.602722   -3.081415      1.00       1.0079
      42     2 H    1   -7.132394   -8.578896   -2.346766      1.00       1.0079
      43     1 O    8    3.008996   -1.620693    5.170452      6.00      15.9994
      44     2 H    1    3.854786   -1.802286    5.686635      1.00       1.0079
      45     2 H    1    3.170083   -0.818538    4.610243      1.00       1.0079
      46     1 O    8   -0.094349    1.863471   -6.686135      6.00      15.9994
      47     2 H    1    0.238983    1.055233   -6.317038      1.00       1.0079
      48     2 H    1   -0.053460    1.737047   -7.652783      1.00       1.0079
      49     1 O    8    1.380300   -3.081547    3.659847      6.00      15.9994
      50     2 H    1    2.005275   -2.679362    4.316923      1.00       1.0079
      51     2 H    1    1.097394   -3.966638    3.981340      1.00       1.0079
      52     1 O    8   -2.327913    2.806079    2.234742      6.00      15.9994
      53     2 H    1   -1.623045    2.131523    2.186616      1.00       1.0079
      54     2 H    1   -2.760923    2.581957    3.088951      1.00       1.0079
      55     1 O    8    0.874513   -0.661119   -5.600405      6.00      15.9994
      56     2 H    1    1.720402   -0.818966   -6.109861      1.00       1.0079
      57     2 H    1    1.196412   -0.240506   -4.754906      1.00       1.0079
      58     1 O    8   -1.186646   -0.716403    0.243785      6.00      15.9994
      59     2 H    1   -1.134001    0.232571   -0.072616      1.00       1.0079
      60     2 H    1   -0.933544   -0.785478    1.201134      1.00       1.0079
      61     1 O    8   -3.886194   -9.012929   -3.131857      6.00      15.9994
      62     2 H    1   -4.498349   -8.280126   -3.216022      1.00       1.0079
      63     2 H    1   -2.918386   -8.730140   -3.122451      1.00       1.0079
      64     1 O    8    4.978441    4.557411    2.160598      6.00      15.9994
      65     2 H    1    4.574251    4.069025    1.437504      1.00       1.0079
      66     2 H    1    4.210678    4.907944    2.673609      1.00       1.0079
      67     1 O    8    4.207481    1.029475   -3.213494      6.00      15.9994
      68     2 H    1    4.625087    0.852431   -4.064867      1.00       1.0079
      69     2 H    1    4.422152    0.192039   -2.736436      1.00       1.0079
      70     1 O    8   -5.210635   -6.346370   -2.680646      6.00      15.9994
      71     2 H    1   -5.380163   -6.086183   -1.773761      1.00       1.0079
      72     2 H    1   -5.998555   -6.089431   -3.152188      1.00       1.0079
      73     1 O    8    4.827201   -2.149309    0.695756      6.00      15.9994
      74     2 H    1    5.169811   -1.384311    1.168073      1.00       1.0079
      75     2 H    1    3.873140   -2.015277    0.790152      1.00       1.0079
      76     1 O    8    2.108497    0.940656    1.696470      6.00      15.9994
      77     2 H    1    2.763570    1.510652    1.258248      1.00       1.0079
      78     2 H    1    2.313842    0.079150    1.294322      1.00       1.0079
      79     1 O    8   -5.757905   -5.093599   -0.361373      6.00      15.9994
      80     2 H    1   -6.692202   -5.443891   -0.243446      1.00       1.0079
      81     2 H    1   -5.933954   -4.185226   -0.689323      1.00       1.0079
      82     1 O    8   -4.850118    4.634751    2.632366      6.00      15.9994
      83     2 H    1   -5.818692    4.729150    2.364808      1.00       1.0079
      84     2 H    1   -4.768696    3.668506    2.248911      1.00       1.0079
      85     1 O    8    5.512389    0.852383   -5.592791      6.00      15.9994
      86     2 H    1    6.400927    1.196167   -5.345498      1.00       1.0079
      87     2 H    1    5.032627    1.457110   -6.282087      1.00       1.0079
      88     1 O    8    0.736518   -1.917695   -1.272458      6.00      15.9994
      89     2 H    1    0.436663   -2.668596   -1.845250      1.00       1.0079
      90     2 H    1   -0.028072   -1.634696   -0.732364      1.00       1.0079
      91     1 O    8    3.900594    2.622197    0.082498      6.00      15.9994
      92     2 H    1    4.660363    2.413641   -0.488502      1.00       1.0079
      93     2 H    1    3.361931    3.246591   -0.459951      1.00       1.0079
      94     1 O    8   -1.099162   -1.369341    2.949888      6.00      15.9994
      95     2 H    1   -0.335406   -2.036901    3.107502      1.00       1.0079
      96     2 H    1   -1.847346   -1.991636    3.203214      1.00       1.0079
      97     1 O    8    2.071845   -5.650168    1.362908      6.00      15.9994
      98     2 H    1    1.204362   -6.136982    1.256069      1.00       1.0079
      99     2 H    1    2.450750   -5.885909    2.255821      1.00       1.0079
     100     1 O    8   -0.628031   -3.827349   -2.846086      6.00      15.9994
     101     2 H    1   -1.558364   -3.776964   -2.581114      1.00       1.0079
     102     2 H    1   -0.511229   -4.587952   -3.398223      1.00       1.0079
     103     1 O    8   -5.291843    2.062167    1.435301      6.00      15.9994
     104     2 H    1   -4.454945    1.877605    1.901455      1.00       1.0079
     105     2 H    1   -5.133594    1.919821    0.419723      1.00       1.0079
     106     1 O    8    1.959972   -3.424563   -5.267360      6.00      15.9994
     107     2 H    1    1.322556   -4.212309   -5.038883      1.00       1.0079
     108     2 H    1    1.299929   -2.771147   -5.498678      1.00       1.0079
     109     1 O    8   -1.193321    3.936851   -3.373747      6.00      15.9994
     110     2 H    1   -1.200301    3.980365   -4.358294      1.00       1.0079
     111     2 H    1   -0.740251    4.650096   -2.940559      1.00       1.0079
     112     1 O    8   -5.424398   -5.002981    4.278463      6.00      15.9994
     113     2 H    1   -6.116403   -4.512700    3.781732      1.00       1.0079
     114     2 H    1   -4.740320   -5.349861    3.692094      1.00       1.0079
     115     1 O    8    2.973298    5.793755    3.604183      6.00      15.9994
     116     2 H    1    3.417671    6.472671    4.169501      1.00       1.0079
     117     2 H    1    2.448520    5.204109    4.225087      1.00       1.0079
     118     1 O    8   -4.051130    1.544593   -5.062650      6.00      15.9994
     119     2 H    1   -3.538710    0.797484   -4.621055      1.00       1.0079
     120     2 H    1   -4.033382    2.351849   -4.430137      1.00       1.0079
     121     1 O    8    3.484773    0.599769    4.009149      6.00      15.9994
     122     2 H    1    2.789650    0.537511    3.268667      1.00       1.0079
     123     2 H    1    4.318998    0.415332    3.439528      1.00       1.0079
     124     1 O    8   -4.620748   -1.011762    4.004895      6.00      15.9994
     125     2 H    1   -5.347759   -1.244306    4.625324      1.00       1.0079
     126     2 H    1   -4.216388   -1.884479    3.842806      1.00       1.0079
     127     1 O    8   -0.216539    1.275147    3.116717      6.00      15.9994
     128     2 H    1    0.637178    1.413680    2.728697      1.00       1.0079
     129     2 H    1   -0.389412    0.322584    3.050879      1.00       1.0079
     130     1 O    8   -1.991535    5.069708    0.600019      6.00      15.9994
     131     2 H    1   -2.337650    4.234088    1.001390      1.00       1.0079
     132     2 H    1   -2.652025    5.747116    0.850662      1.00       1.0079
     133     1 O    8   -1.307547   -1.895612   -4.954292      6.00      15.9994
     134     2 H    1   -0.870125   -2.402819   -4.256374      1.00       1.0079
     135     2 H    1   -0.594969   -1.353212   -5.453243      1.00       1.0079
     136     1 O    8   -5.137345    1.806207   -1.286768      6.00      15.9994
     137     2 H    1   -4.698159    2.459748   -1.850567      1.00       1.0079
     138     2 H    1   -5.424553    1.125693   -1.863395      1.00       1.0079
     139     1 O    8   -7.383656   -1.211987   -1.950660      6.00      15.9994
     140     2 H    1   -6.421288   -1.037143   -2.146380      1.00       1.0079
     141     2 H    1   -7.480878   -1.531048   -1.033948      1.00       1.0079
     142     1 O    8   -0.463945    1.404847   -1.722864      6.00      15.9994
     143     2 H    1   -0.786735    2.186650   -2.196230      1.00       1.0079
     144     2 H    1    0.274393    0.986416   -2.221585      1.00       1.0079
     145     1 O    8   -0.029811   -6.521092   -1.093364      6.00      15.9994
     146     2 H    1    0.002142   -5.531145   -1.122665      1.00       1.0079
     147     2 H    1   -0.803113   -6.743514   -0.464856      1.00       1.0079
     148     1 O    8    5.709094   -1.692709    6.018549      6.00      15.9994
     149     2 H    1    6.022772   -2.510238    6.419541      1.00       1.0079
     150     2 H    1    5.679350   -0.901240    6.652196      1.00       1.0079
     151     1 O    8   -2.596298   -5.768397   -4.219577      6.00      15.9994
     152     2 H    1   -2.604903   -6.707767   -4.472834      1.00       1.0079
     153     2 H    1   -3.435454   -5.564584   -3.848351      1.00       1.0079
     154     1 O    8   -4.944969   -1.408672   -3.247339      6.00      15.9994
     155     2 H    1   -4.891302   -2.221732   -3.767422      1.00       1.0079
     156     2 H    1   -3.968955   -1.096486   -3.234198      1.00       1.0079
     157     1 O    8    2.298375   -8.080949   -1.213241      6.00      15.9994
     158     2 H    1    1.300368   -8.063628   -1.114392      1.00       1.0079
     159     2 H    1    2.516194   -7.105367   -1.176852      1.00       1.0079
     160     1 O    8    6.775436   -3.896533   -5.335926      6.00      15.9994
     161     2 H    1    7.549942   -4.100300   -5.821362      1.00       1.0079
     162     2 H    1    6.043016   -4.432815   -5.647961      1.00       1.0079
     163     1 O    8   -0.342484    4.965811    2.950829      6.00      15.9994
     164     2 H    1   -0.641824    4.167256    3.471638      1.00       1.0079
     165     2 H    1   -0.675974    4.869938    2.055138      1.00       1.0079
     166     1 O    8   -2.805629   -4.004823    6.223906      6.00      15.9994
     167     2 H    1   -2.385060   -4.632289    6.845556      1.00       1.0079
     168     2 H    1   -2.379735   -3.149823    6.433016      1.00       1.0079
     169     1 O    8   -2.792511   -3.473224    3.461233      6.00      15.9994
     170     2 H    1   -3.112954   -3.862064    4.274613      1.00       1.0079
     171     2 H    1   -3.285609   -4.027145    2.827441      1.00       1.0079
     172     1 O    8    2.486771    4.680362   -3.951121      6.00      15.9994
     173     2 H    1    3.397137    4.508164   -3.629816      1.00       1.0079
     174     2 H    1    1.979071    4.624068   -3.115244      1.00       1.0079
     175     1 O    8    1.659077    0.052314   -3.106919      6.00      15.9994
     176     2 H    1    1.511356   -0.599677   -2.356369      1.00       1.0079
     177     2 H    1    2.506872    0.526419   -3.066152      1.00       1.0079
     178     1 O    8   -1.202305   -8.160348   -6.367070      6.00      15.9994
     179     2 H    1   -0.905516   -9.069055   -6.570527      1.00       1.0079
     180     2 H    1   -2.179810   -8.074002   -6.546491      1.00       1.0079
     181     1 O    8   -0.476107    8.385162    0.598747      6.00      15.9994
     182     2 H    1    0.363244    8.309655    1.105835      1.00       1.0079
     183     2 H    1   -1.285239    8.075385    1.058726      1.00       1.0079
     184     1 O    8    5.906545   -6.798977   -6.600440      6.00      15.9994
     185     2 H    1    5.413015   -7.623317   -6.913788      1.00       1.0079
     186     2 H    1    6.217751   -6.234454   -7.319872      1.00       1.0079
     187     1 O    8   -0.359433   -5.262244    4.670430      6.00      15.9994
     188     2 H    1   -0.415613   -6.098882    4.136748      1.00       1.0079
     189     2 H    1   -1.293113   -5.154797    4.949758      1.00       1.0079
     190     1 O    8   -3.827313   -5.527924    1.763366      6.00      15.9994
     191     2 H    1   -4.138854   -6.362200    2.151380      1.00       1.0079
     192     2 H    1   -4.395567   -5.321694    1.040595      1.00       1.0079




 SCF PARAMETERS         Density guess:                                   RESTART
                        --------------------------------------------------------
                        max_scf:                                              30
                        max_scf_history:                                       0
                        max_diis:                                              4
                        --------------------------------------------------------
                        eps_scf:                                        1.00E-06
                        eps_scf_history:                                0.00E+00
                        eps_diis:                                       1.00E-01
                        eps_eigval:                                     1.00E-05
                        --------------------------------------------------------
                        level_shift [a.u.]:                                 0.00
                        --------------------------------------------------------
                        Outer loop SCF in use 
                        No variables optimised in outer loop
                        eps_scf                                         1.00E-06
                        max_scf                                               10
                        No outer loop optimization
                        step_size                                       5.00E-01

 PW_GRID| Information for grid number                                          1
 PW_GRID| Grid distributed over                                    64 processors
 PW_GRID| Real space group dimensions                                    64    1
 PW_GRID| the grid is blocked:                                                NO
 PW_GRID| Cutoff [a.u.]                                                    200.0
 PW_GRID| spherical cutoff:                                                   NO
 PW_GRID|   Bounds   1            -75      74                Points:         150
 PW_GRID|   Bounds   2            -75      74                Points:         150
 PW_GRID|   Bounds   3            -75      74                Points:         150
 PW_GRID| Volume element (a.u.^3)  0.3831E-02     Volume (a.u.^3)     12928.8946
 PW_GRID| Grid span                                                    FULLSPACE
 PW_GRID|   Distribution                         Average         Max         Min
 PW_GRID|   G-Vectors                            52734.4       52800       52650
 PW_GRID|   G-Rays                                 351.6         352         351
 PW_GRID|   Real Space Points                    52734.4       67500       45000

 PW_GRID| Information for grid number                                          2
 PW_GRID| Grid distributed over                                    64 processors
 PW_GRID| Real space group dimensions                                    64    1
 PW_GRID| the grid is blocked:                                                NO
 PW_GRID| Cutoff [a.u.]                                                     66.7
 PW_GRID| spherical cutoff:                                                   NO
 PW_GRID|   Bounds   1            -45      44                Points:          90
 PW_GRID|   Bounds   2            -45      44                Points:          90
 PW_GRID|   Bounds   3            -45      44                Points:          90
 PW_GRID| Volume element (a.u.^3)  0.1774E-01     Volume (a.u.^3)     12928.8946
 PW_GRID| Grid span                                                    FULLSPACE
 PW_GRID|   Distribution                         Average         Max         Min
 PW_GRID|   G-Vectors                            11390.6       11430       11340
 PW_GRID|   G-Rays                                 126.6         127         126
 PW_GRID|   Real Space Points                    11390.6       16200        8100

 PW_GRID| Information for grid number                                          3
 PW_GRID| Grid distributed over                                    64 processors
 PW_GRID| Real space group dimensions                                     8    8
 PW_GRID| the grid is blocked:                                                NO
 PW_GRID| Cutoff [a.u.]                                                     22.2
 PW_GRID| spherical cutoff:                                                   NO
 PW_GRID|   Bounds   1            -27      26                Points:          54
 PW_GRID|   Bounds   2            -27      26                Points:          54
 PW_GRID|   Bounds   3            -27      26                Points:          54
 PW_GRID| Volume element (a.u.^3)  0.8211E-01     Volume (a.u.^3)     12928.8946
 PW_GRID| Grid span                                                    FULLSPACE
 PW_GRID|   Distribution                         Average         Max         Min
 PW_GRID|   G-Vectors                             2460.4        2592        2322
 PW_GRID|   G-Rays                                  45.6          48          43
 PW_GRID|   Real Space Points                     2460.4        2646        1944

 PW_GRID| Information for grid number                                          4
 PW_GRID| Grid distributed over                                    64 processors
 PW_GRID| Real space group dimensions                                     8    8
 PW_GRID| the grid is blocked:                                                NO
 PW_GRID| Cutoff [a.u.]                                                      7.4
 PW_GRID| spherical cutoff:                                                   NO
 PW_GRID|   Bounds   1            -15      14                Points:          30
 PW_GRID|   Bounds   2            -15      14                Points:          30
 PW_GRID|   Bounds   3            -15      14                Points:          30
 PW_GRID| Volume element (a.u.^3)  0.4788         Volume (a.u.^3)     12928.8946
 PW_GRID| Grid span                                                    FULLSPACE
 PW_GRID|   Distribution                         Average         Max         Min
 PW_GRID|   G-Vectors                              421.9         480         390
 PW_GRID|   G-Rays                                  14.1          16          13
 PW_GRID|   Real Space Points                      421.9         480         270

 POISSON| Solver                                                        PERIODIC
 POISSON| Periodicity                                                        XYZ

 RS_GRID| Information for grid number                                          1
 RS_GRID|   Bounds   1            -75      74                Points:         150
 RS_GRID|   Bounds   2            -75      74                Points:         150
 RS_GRID|   Bounds   3            -75      74                Points:         150
 RS_GRID| Real space distribution over                                  4 groups
 RS_GRID| Real space distribution along direction                              1
 RS_GRID| Border size                                                         19
 RS_GRID| Real space distribution over                                  4 groups
 RS_GRID| Real space distribution along direction                              2
 RS_GRID| Border size                                                         19
 RS_GRID| Real space distribution over                                  4 groups
 RS_GRID| Real space distribution along direction                              3
 RS_GRID| Border size                                                         19
 RS_GRID|   Distribution                         Average         Max         Min
 RS_GRID|   Planes                                  75.5          76          75
 RS_GRID|   Distribution                         Average         Max         Min
 RS_GRID|   Planes                                  75.5          76          75
 RS_GRID|   Distribution                         Average         Max         Min
 RS_GRID|   Planes                                  75.5          76          75

 RS_GRID| Information for grid number                                          2
 RS_GRID|   Bounds   1            -45      44                Points:          90
 RS_GRID|   Bounds   2            -45      44                Points:          90
 RS_GRID|   Bounds   3            -45      44                Points:          90
 RS_GRID| Real space distribution over                                  4 groups
 RS_GRID| Real space distribution along direction                              1
 RS_GRID| Border size                                                         20
 RS_GRID| Real space distribution over                                  4 groups
 RS_GRID| Real space distribution along direction                              2
 RS_GRID| Border size                                                         20
 RS_GRID| Real space distribution over                                  4 groups
 RS_GRID| Real space distribution along direction                              3
 RS_GRID| Border size                                                         20
 RS_GRID|   Distribution                         Average         Max         Min
 RS_GRID|   Planes                                  62.5          63          62
 RS_GRID|   Distribution                         Average         Max         Min
 RS_GRID|   Planes                                  62.5          63          62
 RS_GRID|   Distribution                         Average         Max         Min
 RS_GRID|   Planes                                  62.5          63          62

 RS_GRID| Information for grid number                                          3
 RS_GRID|   Bounds   1            -27      26                Points:          54
 RS_GRID|   Bounds   2            -27      26                Points:          54
 RS_GRID|   Bounds   3            -27      26                Points:          54
 RS_GRID| Real space fully replicated
 RS_GRID| Group size                                                           1

 RS_GRID| Information for grid number                                          4
 RS_GRID|   Bounds   1            -15      14                Points:          30
 RS_GRID|   Bounds   2            -15      14                Points:          30
 RS_GRID|   Bounds   3            -15      14                Points:          30
 RS_GRID| Real space fully replicated
 RS_GRID| Group size                                                           1

 DISTRIBUTION OF THE PARTICLES (ROWS)
              Process row      Number of particles         Number of matrix rows
                        0                       24                            -1
                        1                       24                            -1
                        2                       24                            -1
                        3                       24                            -1
                        4                       24                            -1
                        5                       24                            -1
                        6                       24                            -1
                        7                       24                            -1
                      Sum                      192                            -1

 DISTRIBUTION OF THE PARTICLES (COLUMNS)
              Process col      Number of particles      Number of matrix columns
                        0                       24                            -1
                        1                       24                            -1
                        2                       24                            -1
                        3                       24                            -1
                        4                       24                            -1
                        5                       24                            -1
                        6                       24                            -1
                        7                       24                            -1
                      Sum                      192                            -1

  HFX_INFO| Replica ID:                                                        1
  HFX_INFO| EPS_SCHWARZ:                                                 1.0E-06
  HFX_INFO| EPS_SCHWARZ_FORCES                                           1.0E-06
  HFX_INFO| EPS_STORAGE_SCALING:                                         1.0E-01
  HFX_INFO| NBINS:                                                            64
  HFX_INFO| BLOCK_SIZE:                                                        3
  HFX_INFO| FRACTION:                                               0.3500000000
  HFX_INFO| Interaction Potential:                                     TRUNCATED
  HFX_INFO| Cutoff Radius [angstrom]:                               6.0000000000
  HFX_INFO| NUMBER_OF_SHELLS:                                               AUTO
  HFX_INFO| Number of periodic shells considered:                             -1
  HFX_INFO| Number of periodic cells considered:                              27


 DISTRIBUTION OF THE NEIGHBOR LISTS
              Total number of particle pairs:                              21379
              Total number of matrix elements:                           1231147
              Average number of particle pairs:                              335
              Maximum number of particle pairs:                              370
              Average number of matrix element:                            19237
              Maximum number of matrix elements:                           21624


 DISTRIBUTION OF THE OVERLAP MATRIX
              Number  of non-zero blocks:                                  16652
              Percentage non-zero blocks:                                  89.87
              Average number of blocks per CPU:                              261
              Maximum number of blocks per CPU:                              279
              Average number of matrix elements per CPU:                   15194
              Maximum number of matrix elements per CPU:                   16625

 Number of electrons:                                                        512
 Number of occupied orbitals:                                                256
 Number of molecular orbitals:                                               256

 Number of orbital functions:                                               1472
 Number of independent orbital functions:                                   1472

 Extrapolation method: initial_guess


 SCF WAVEFUNCTION OPTIMIZATION

  ----------------------------------- OT ---------------------------------------

  Allowing for rotations:  F
  Optimizing orbital energies:  F
  Minimizer      : DIIS                : direct inversion
                                         in the iterative subspace
                            using      : -   7 DIIS vectors
                                         - safer DIIS on
  Preconditioner : FULL_SINGLE_INVERSE : inversion of H + eS - 2*(Sc)(c^T*H*c+const)(Sc)^T
  Precond_solver : DEFAULT
  stepsize       :    0.08000000
  energy_gap     :    0.08000000

  eps_taylor     :   0.10000E-15
  max_taylor     :             4

  mixed_precision    : F

  ----------------------------------- OT ---------------------------------------

  Step     Update method      Time    Convergence         Total energy    Change
  ------------------------------------------------------------------------------

  Trace(PS):                                  512.0000000000
  Electronic density on regular grids:       -511.9999999886        0.0000000114
  Core density on regular grids:              511.9999999836       -0.0000000164
  Total charge density on r-space grids:       -0.0000000051
  Total charge density g-space grids:          -0.0000000051


  HFX_MEM_INFO| Est. max. program size before HFX [MB's]:                    152

 *** 11:52:50 WARNING in hfx_energy_potential:integrate_four_center :: The ***
 *** Kohn Sham matrix is not 100% occupied. This may result in uncorrect   ***
 *** Hartree-Fock results. Try to decrease EPS_PGF_ORB and                 ***
 *** EPS_FILTER_MATRIX in the QS section.                                  ***

  HFX_MEM_INFO| Number of cart. primitive ERI's calculated:          16091091976
  HFX_MEM_INFO| Number of sph. ERI's calculated:                      3464714451
  HFX_MEM_INFO| Number of sph. ERI's stored in-core:                  1148714899
  HFX_MEM_INFO| Number of sph. ERI's stored on disk:                           0
  HFX_MEM_INFO| Number of sph. ERI's calculated on the fly:                    0
  HFX_MEM_INFO| Total memory consumption ERI's RAM [MB's]:                  1110
  HFX_MEM_INFO| Whereof max-vals [MB's]:                                      62
  HFX_MEM_INFO| Total compression factor ERI's RAM:                         7.90
  HFX_MEM_INFO| Total memory consumption ERI's disk [MB's]:                    0
  HFX_MEM_INFO| Total compression factor ERI's disk:                        0.00
  HFX_MEM_INFO| Size of density/Fock matrix [MB's]:                           14
  HFX_MEM_INFO| Size of buffers [MB's]:                                        2
  HFX_MEM_INFO| Number of periodic image cells considered:                    27
  HFX_MEM_INFO| Est. max. program size after HFX  [MB's]:                    191

     1 OT DIIS     0.80E-01   16.3     0.00099468     -1101.9839797288 -1.10E+03

  Trace(PS):                                  512.0000000000
  Electronic density on regular grids:       -511.9999999887        0.0000000113
  Core density on regular grids:              511.9999999836       -0.0000000164
  Total charge density on r-space grids:       -0.0000000051
  Total charge density g-space grids:          -0.0000000051

     2 OT DIIS     0.80E-01    4.3     0.00064520     -1102.0085247987 -2.45E-02

  Trace(PS):                                  512.0000000000
  Electronic density on regular grids:       -511.9999999887        0.0000000113
  Core density on regular grids:              511.9999999836       -0.0000000164
  Total charge density on r-space grids:       -0.0000000051
  Total charge density g-space grids:          -0.0000000051

     3 OT DIIS     0.80E-01    3.8     0.00010239     -1102.0267317549 -1.82E-02

  Trace(PS):                                  512.0000000000
  Electronic density on regular grids:       -511.9999999887        0.0000000113
  Core density on regular grids:              511.9999999836       -0.0000000164
  Total charge density on r-space grids:       -0.0000000052
  Total charge density g-space grids:          -0.0000000052

     4 OT DIIS     0.80E-01    1.4     0.00002276     -1102.0271832057 -4.51E-04

  Trace(PS):                                  512.0000000000
  Electronic density on regular grids:       -511.9999999887        0.0000000113
  Core density on regular grids:              511.9999999836       -0.0000000164
  Total charge density on r-space grids:       -0.0000000052
  Total charge density g-space grids:          -0.0000000052

     5 OT DIIS     0.80E-01    4.3     0.00000546     -1102.0272049130 -2.17E-05

  Trace(PS):                                  512.0000000000
  Electronic density on regular grids:       -511.9999999887        0.0000000113
  Core density on regular grids:              511.9999999836       -0.0000000164
  Total charge density on r-space grids:       -0.0000000052
  Total charge density g-space grids:          -0.0000000052

     6 OT DIIS     0.80E-01    4.0     0.00000270     -1102.0272059778 -1.06E-06

  Trace(PS):                                  512.0000000000
  Electronic density on regular grids:       -511.9999999887        0.0000000113
  Core density on regular grids:              511.9999999836       -0.0000000164
  Total charge density on r-space grids:       -0.0000000052
  Total charge density g-space grids:          -0.0000000052

     7 OT DIIS     0.80E-01    1.4     0.00000099     -1102.0272062970 -3.19E-07

  *** SCF run converged in     7 steps ***


  Electronic density on regular grids:       -511.9999999887        0.0000000113
  Core density on regular grids:              511.9999999836       -0.0000000164
  Total charge density on r-space grids:       -0.0000000052
  Total charge density g-space grids:          -0.0000000052

  Overlap energy of the core charge distribution:               0.00000237129466
  Self energy of the core charge distribution:              -2838.21791979121008
  Core Hamiltonian energy:                                    829.08880146978959
  Hartree energy:                                            1179.06535972896472
  Exchange-correlation energy:                               -183.50272172116394
  Hartree-Fock Exchange energy:                               -88.21436136653278
  Dispersion energy:                                           -0.24636698815184

  Total energy:                                             -1102.02720629700957

  outer SCF iter =    1 RMS gradient =   0.99E-06 energy =      -1102.0272062970
  outer SCF loop converged in   1 iterations or    7 steps



 MULLIKEN POPULATION ANALYSIS

 #  Atom  Element  Kind  Atomic population                Net charge
       1     O        1          6.556628                 -0.556628
       2     H        2          0.735754                  0.264246
       3     H        2          0.709382                  0.290618
       4     O        1          6.542094                 -0.542094
       5     H        2          0.743482                  0.256518
       6     H        2          0.684712                  0.315288
       7     O        1          6.528528                 -0.528528
       8     H        2          0.706811                  0.293189
       9     H        2          0.750202                  0.249798
      10     O        1          6.539384                 -0.539384
      11     H        2          0.761181                  0.238819
      12     H        2          0.735530                  0.264470
      13     O        1          6.547521                 -0.547521
      14     H        2          0.722941                  0.277059
      15     H        2          0.733482                  0.266518
      16     O        1          6.646393                 -0.646393
      17     H        2          0.679462                  0.320538
      18     H        2          0.686407                  0.313593
      19     O        1          6.544261                 -0.544261
      20     H        2          0.689006                  0.310994
      21     H        2          0.760155                  0.239845
      22     O        1          6.500842                 -0.500842
      23     H        2          0.770545                  0.229455
      24     H        2          0.728112                  0.271888
      25     O        1          6.536444                 -0.536444
      26     H        2          0.749564                  0.250436
      27     H        2          0.709717                  0.290283
      28     O        1          6.554942                 -0.554942
      29     H        2          0.741392                  0.258608
      30     H        2          0.713558                  0.286442
      31     O        1          6.527550                 -0.527550
      32     H        2          0.730367                  0.269633
      33     H        2          0.764169                  0.235831
      34     O        1          6.646540                 -0.646540
      35     H        2          0.699938                  0.300062
      36     H        2          0.665340                  0.334660
      37     O        1          6.548983                 -0.548983
      38     H        2          0.717122                  0.282878
      39     H        2          0.709577                  0.290423
      40     O        1          6.481818                 -0.481818
      41     H        2          0.722888                  0.277112
      42     H        2          0.789248                  0.210752
      43     O        1          6.626225                 -0.626225
      44     H        2          0.690428                  0.309572
      45     H        2          0.716509                  0.283491
      46     O        1          6.536512                 -0.536512
      47     H        2          0.758741                  0.241259
      48     H        2          0.712208                  0.287792
      49     O        1          6.597846                 -0.597846
      50     H        2          0.689930                  0.310070
      51     H        2          0.721594                  0.278406
      52     O        1          6.570973                 -0.570973
      53     H        2          0.739242                  0.260758
      54     H        2          0.715483                  0.284517
      55     O        1          6.608650                 -0.608650
      56     H        2          0.711720                  0.288280
      57     H        2          0.678409                  0.321591
      58     O        1          6.575346                 -0.575346
      59     H        2          0.713475                  0.286525
      60     H        2          0.706201                  0.293799
      61     O        1          6.606493                 -0.606493
      62     H        2          0.699996                  0.300004
      63     H        2          0.675526                  0.324474
      64     O        1          6.542925                 -0.542925
      65     H        2          0.748323                  0.251677
      66     H        2          0.723495                  0.276505
      67     O        1          6.580298                 -0.580298
      68     H        2          0.718698                  0.281302
      69     H        2          0.713585                  0.286415
      70     O        1          6.519357                 -0.519357
      71     H        2          0.735069                  0.264931
      72     H        2          0.755326                  0.244674
      73     O        1          6.543041                 -0.543041
      74     H        2          0.715343                  0.284657
      75     H        2          0.728163                  0.271837
      76     O        1          6.525016                 -0.525016
      77     H        2          0.714206                  0.285794
      78     H        2          0.736620                  0.263380
      79     O        1          6.556875                 -0.556875
      80     H        2          0.689191                  0.310809
      81     H        2          0.747456                  0.252544
      82     O        1          6.624253                 -0.624253
      83     H        2          0.671999                  0.328001
      84     H        2          0.705393                  0.294607
      85     O        1          6.647537                 -0.647537
      86     H        2          0.695612                  0.304388
      87     H        2          0.639746                  0.360254
      88     O        1          6.599029                 -0.599029
      89     H        2          0.672174                  0.327826
      90     H        2          0.700832                  0.299168
      91     O        1          6.544127                 -0.544127
      92     H        2          0.762869                  0.237131
      93     H        2          0.686043                  0.313957
      94     O        1          6.601234                 -0.601234
      95     H        2          0.711437                  0.288563
      96     H        2          0.683256                  0.316744
      97     O        1          6.592261                 -0.592261
      98     H        2          0.737931                  0.262069
      99     H        2          0.664591                  0.335409
     100     O        1          6.535057                 -0.535057
     101     H        2          0.721265                  0.278735
     102     H        2          0.719426                  0.280574
     103     O        1          6.577589                 -0.577589
     104     H        2          0.743724                  0.256276
     105     H        2          0.654179                  0.345821
     106     O        1          6.543045                 -0.543045
     107     H        2          0.727688                  0.272312
     108     H        2          0.772821                  0.227179
     109     O        1          6.572156                 -0.572156
     110     H        2          0.708609                  0.291391
     111     H        2          0.714501                  0.285499
     112     O        1          6.548689                 -0.548689
     113     H        2          0.706623                  0.293377
     114     H        2          0.763360                  0.236640
     115     O        1          6.604039                 -0.604039
     116     H        2          0.710322                  0.289678
     117     H        2          0.682900                  0.317100
     118     O        1          6.632960                 -0.632960
     119     H        2          0.702434                  0.297566
     120     H        2          0.690402                  0.309598
     121     O        1          6.550953                 -0.550953
     122     H        2          0.743678                  0.256322
     123     H        2          0.709278                  0.290722
     124     O        1          6.524934                 -0.524934
     125     H        2          0.714861                  0.285139
     126     H        2          0.761853                  0.238147
     127     O        1          6.558989                 -0.558989
     128     H        2          0.707113                  0.292887
     129     H        2          0.701850                  0.298150
     130     O        1          6.569202                 -0.569202
     131     H        2          0.708426                  0.291574
     132     H        2          0.730997                  0.269003
     133     O        1          6.594072                 -0.594072
     134     H        2          0.746310                  0.253690
     135     H        2          0.650653                  0.349347
     136     O        1          6.524136                 -0.524136
     137     H        2          0.705241                  0.294759
     138     H        2          0.772134                  0.227866
     139     O        1          6.581624                 -0.581624
     140     H        2          0.704506                  0.295494
     141     H        2          0.717695                  0.282305
     142     O        1          6.544313                 -0.544313
     143     H        2          0.731855                  0.268145
     144     H        2          0.731791                  0.268209
     145     O        1          6.609109                 -0.609109
     146     H        2          0.717505                  0.282495
     147     H        2          0.671577                  0.328423
     148     O        1          6.598716                 -0.598716
     149     H        2          0.726557                  0.273443
     150     H        2          0.692016                  0.307984
     151     O        1          6.499452                 -0.499452
     152     H        2          0.756044                  0.243956
     153     H        2          0.738517                  0.261483
     154     O        1          6.551421                 -0.551421
     155     H        2          0.745605                  0.254395
     156     H        2          0.697447                  0.302553
     157     O        1          6.546859                 -0.546859
     158     H        2          0.713637                  0.286363
     159     H        2          0.720007                  0.279993
     160     O        1          6.499970                 -0.499970
     161     H        2          0.716259                  0.283741
     162     H        2          0.744512                  0.255488
     163     O        1          6.532727                 -0.532727
     164     H        2          0.740704                  0.259296
     165     H        2          0.748617                  0.251383
     166     O        1          6.562167                 -0.562167
     167     H        2          0.730105                  0.269895
     168     H        2          0.714255                  0.285745
     169     O        1          6.515330                 -0.515330
     170     H        2          0.735867                  0.264133
     171     H        2          0.732680                  0.267320
     172     O        1          6.559347                 -0.559347
     173     H        2          0.707465                  0.292535
     174     H        2          0.759495                  0.240505
     175     O        1          6.618838                 -0.618838
     176     H        2          0.685662                  0.314338
     177     H        2          0.693632                  0.306368
     178     O        1          6.587870                 -0.587870
     179     H        2          0.709096                  0.290904
     180     H        2          0.695730                  0.304270
     181     O        1          6.527217                 -0.527217
     182     H        2          0.740495                  0.259505
     183     H        2          0.739302                  0.260698
     184     O        1          6.580213                 -0.580213
     185     H        2          0.714036                  0.285964
     186     H        2          0.721699                  0.278301
     187     O        1          6.543041                 -0.543041
     188     H        2          0.697268                  0.302732
     189     H        2          0.763973                  0.236027
     190     O        1          6.573205                 -0.573205
     191     H        2          0.706571                  0.293429
     192     H        2          0.703140                  0.296860
 # Total charge                512.000000                 -0.000000


 !-----------------------------------------------------------------------------!
                           Hirschfeld Charges

  #Atom  Element  Kind  Ref Charge     Population                     Net charge
      1       O      1       6.000          6.533                         -0.533
      2       H      2       1.000          0.728                          0.272
      3       H      2       1.000          0.740                          0.260
      4       O      1       6.000          6.514                         -0.514
      5       H      2       1.000          0.735                          0.265
      6       H      2       1.000          0.721                          0.279
      7       O      1       6.000          6.496                         -0.496
      8       H      2       1.000          0.743                          0.257
      9       H      2       1.000          0.728                          0.272
     10       O      1       6.000          6.492                         -0.492
     11       H      2       1.000          0.743                          0.257
     12       H      2       1.000          0.744                          0.256
     13       O      1       6.000          6.521                         -0.521
     14       H      2       1.000          0.730                          0.270
     15       H      2       1.000          0.732                          0.268
     16       O      1       6.000          6.533                         -0.533
     17       H      2       1.000          0.731                          0.269
     18       H      2       1.000          0.749                          0.251
     19       O      1       6.000          6.525                         -0.525
     20       H      2       1.000          0.747                          0.253
     21       H      2       1.000          0.740                          0.260
     22       O      1       6.000          6.526                         -0.526
     23       H      2       1.000          0.730                          0.270
     24       H      2       1.000          0.735                          0.265
     25       O      1       6.000          6.525                         -0.525
     26       H      2       1.000          0.739                          0.261
     27       H      2       1.000          0.738                          0.262
     28       O      1       6.000          6.517                         -0.517
     29       H      2       1.000          0.742                          0.258
     30       H      2       1.000          0.733                          0.267
     31       O      1       6.000          6.577                         -0.577
     32       H      2       1.000          0.730                          0.270
     33       H      2       1.000          0.753                          0.247
     34       O      1       6.000          6.544                         -0.544
     35       H      2       1.000          0.737                          0.263
     36       H      2       1.000          0.743                          0.257
     37       O      1       6.000          6.511                         -0.511
     38       H      2       1.000          0.737                          0.263
     39       H      2       1.000          0.734                          0.266
     40       O      1       6.000          6.516                         -0.516
     41       H      2       1.000          0.740                          0.260
     42       H      2       1.000          0.735                          0.265
     43       O      1       6.000          6.522                         -0.522
     44       H      2       1.000          0.736                          0.264
     45       H      2       1.000          0.758                          0.242
     46       O      1       6.000          6.512                         -0.512
     47       H      2       1.000          0.748                          0.252
     48       H      2       1.000          0.749                          0.251
     49       O      1       6.000          6.558                         -0.558
     50       H      2       1.000          0.751                          0.249
     51       H      2       1.000          0.740                          0.260
     52       O      1       6.000          6.553                         -0.553
     53       H      2       1.000          0.746                          0.254
     54       H      2       1.000          0.752                          0.248
     55       O      1       6.000          6.498                         -0.498
     56       H      2       1.000          0.735                          0.265
     57       H      2       1.000          0.741                          0.259
     58       O      1       6.000          6.534                         -0.534
     59       H      2       1.000          0.726                          0.274
     60       H      2       1.000          0.743                          0.257
     61       O      1       6.000          6.486                         -0.486
     62       H      2       1.000          0.732                          0.268
     63       H      2       1.000          0.734                          0.266
     64       O      1       6.000          6.531                         -0.531
     65       H      2       1.000          0.745                          0.255
     66       H      2       1.000          0.747                          0.253
     67       O      1       6.000          6.522                         -0.522
     68       H      2       1.000          0.753                          0.247
     69       H      2       1.000          0.749                          0.251
     70       O      1       6.000          6.535                         -0.535
     71       H      2       1.000          0.750                          0.250
     72       H      2       1.000          0.725                          0.275
     73       O      1       6.000          6.498                         -0.498
     74       H      2       1.000          0.747                          0.253
     75       H      2       1.000          0.745                          0.255
     76       O      1       6.000          6.498                         -0.498
     77       H      2       1.000          0.734                          0.266
     78       H      2       1.000          0.738                          0.262
     79       O      1       6.000          6.500                         -0.500
     80       H      2       1.000          0.738                          0.262
     81       H      2       1.000          0.717                          0.283
     82       O      1       6.000          6.545                         -0.545
     83       H      2       1.000          0.747                          0.253
     84       H      2       1.000          0.732                          0.268
     85       O      1       6.000          6.509                         -0.509
     86       H      2       1.000          0.739                          0.261
     87       H      2       1.000          0.726                          0.274
     88       O      1       6.000          6.495                         -0.495
     89       H      2       1.000          0.730                          0.270
     90       H      2       1.000          0.745                          0.255
     91       O      1       6.000          6.523                         -0.523
     92       H      2       1.000          0.732                          0.268
     93       H      2       1.000          0.746                          0.254
     94       O      1       6.000          6.522                         -0.522
     95       H      2       1.000          0.733                          0.267
     96       H      2       1.000          0.733                          0.267
     97       O      1       6.000          6.527                         -0.527
     98       H      2       1.000          0.724                          0.276
     99       H      2       1.000          0.744                          0.256
    100       O      1       6.000          6.501                         -0.501
    101       H      2       1.000          0.736                          0.264
    102       H      2       1.000          0.735                          0.265
    103       O      1       6.000          6.503                         -0.503
    104       H      2       1.000          0.731                          0.269
    105       H      2       1.000          0.729                          0.271
    106       O      1       6.000          6.541                         -0.541
    107       H      2       1.000          0.746                          0.254
    108       H      2       1.000          0.748                          0.252
    109       O      1       6.000          6.498                         -0.498
    110       H      2       1.000          0.730                          0.270
    111       H      2       1.000          0.731                          0.269
    112       O      1       6.000          6.520                         -0.520
    113       H      2       1.000          0.744                          0.256
    114       H      2       1.000          0.738                          0.262
    115       O      1       6.000          6.478                         -0.478
    116       H      2       1.000          0.738                          0.262
    117       H      2       1.000          0.720                          0.280
    118       O      1       6.000          6.576                         -0.576
[...]
    190       O      1       6.000          6.506                         -0.506
    191       H      2       1.000          0.750                          0.250
    192       H      2       1.000          0.743                          0.257

  Total Charge                                                            -0.000
 !-----------------------------------------------------------------------------!
  
  Eigenvalues of the occupied subspace spin            1
 ---------------------------------------------
      -0.98952152     -0.98662765     -0.98494952     -0.98254885
      -0.98096178     -0.97928698     -0.97851755     -0.97782618
      -0.97749907     -0.97546001     -0.97358457     -0.97145095
      -0.97034527     -0.96948540     -0.96815182     -0.96757850
      -0.96690559     -0.96555978     -0.96366222     -0.96246256
      -0.96188762     -0.96088864     -0.95972858     -0.95921045
      -0.95777610     -0.95697534     -0.95673780     -0.95621836
      -0.95591897     -0.95249823     -0.95163846     -0.95105950
      -0.95060075     -0.95022351     -0.94995170     -0.94889801
      -0.94866360     -0.94707013     -0.94643321     -0.94499454
      -0.94445683     -0.94370952     -0.94250445     -0.94211545
      -0.94085802     -0.93958391     -0.93837819     -0.93748605
      -0.93709009     -0.93608226     -0.93454079     -0.93289117
      -0.93096261     -0.93064950     -0.92767878     -0.92483390
      -0.92370432     -0.92197898     -0.92055716     -0.91778120
      -0.91633209     -0.91312315     -0.90543697     -0.89838266
      -0.48482841     -0.47656708     -0.47393363     -0.47256926
      -0.47224963     -0.47080057     -0.46936557     -0.46857205
      -0.46743415     -0.46577200     -0.46555506     -0.46493388
      -0.46292713     -0.46126955     -0.46070071     -0.45913446
      -0.45863344     -0.45738475     -0.45623320     -0.45602262
      -0.45421791     -0.45330626     -0.45230332     -0.45058027
      -0.44985026     -0.44860317     -0.44791722     -0.44732465
      -0.44633359     -0.44530798     -0.44499900     -0.44308870
      -0.44192641     -0.44122381     -0.44027761     -0.43922213
      -0.43911657     -0.43864563     -0.43828865     -0.43771506
      -0.43724480     -0.43620750     -0.43574450     -0.43512998
      -0.43347761     -0.43192719     -0.43124163     -0.43079688
      -0.42983648     -0.42971199     -0.42719119     -0.42664821
      -0.42623630     -0.42324082     -0.42246547     -0.41752881
      -0.41674542     -0.41466903     -0.41302134     -0.40923503
      -0.40866541     -0.40491457     -0.40157954     -0.38611964
      -0.36761685     -0.36342877     -0.35979316     -0.35930796
      -0.35744371     -0.35494027     -0.35402414     -0.35066142
      -0.34961391     -0.34724219     -0.34538616     -0.34364486
      -0.33908360     -0.33847332     -0.33456651     -0.33304377
      -0.33172704     -0.33142396     -0.33101966     -0.33013805
      -0.32681831     -0.32486736     -0.32149979     -0.32043470
      -0.31904415     -0.31750163     -0.31627877     -0.31387272
      -0.31157068     -0.31031127     -0.30822862     -0.30651130
      -0.30529825     -0.30416628     -0.30410328     -0.30327290
      -0.30080252     -0.30023839     -0.29793892     -0.29676031
      -0.29538557     -0.29443459     -0.29279734     -0.29159184
      -0.29039485     -0.28988535     -0.28738381     -0.28569008
      -0.28434721     -0.28388220     -0.28258999     -0.28044982
      -0.27924107     -0.27859170     -0.27817448     -0.27513920
      -0.27307148     -0.27136797     -0.26948129     -0.26938137
      -0.26798025     -0.26608257     -0.25803612     -0.25101328
      -0.25030743     -0.24946714     -0.24668799     -0.24540863
      -0.24479166     -0.24455564     -0.24397373     -0.24288500
      -0.24130585     -0.24055044     -0.24003191     -0.23936340
      -0.23861720     -0.23763249     -0.23635257     -0.23596579
      -0.23576752     -0.23513645     -0.23370408     -0.23323753
      -0.23227306     -0.23187057     -0.23154717     -0.23138209
      -0.23091892     -0.23008863     -0.22976915     -0.22934927
      -0.22896621     -0.22839730     -0.22737599     -0.22709124
      -0.22637198     -0.22578475     -0.22502568     -0.22355039
      -0.22260968     -0.22238955     -0.22206489     -0.22137618
      -0.22109406     -0.21990258     -0.21934891     -0.21845026
      -0.21788634     -0.21742299     -0.21663250     -0.21547655
      -0.21488159     -0.21475428     -0.21354463     -0.21321308
      -0.21284120     -0.21151929     -0.21080232     -0.20886238
      -0.20690867     -0.20555638     -0.20348381     -0.20319547
      -0.20088435     -0.19782903     -0.19469731     -0.19200769
 Fermi Energy [eV] :   -5.224795
  
  Lowest Eigenvalues of the unoccupied subspace spin            1
 -----------------------------------------------------
  Reached convergence in          143  iterations 
       0.11975787      0.16551820      0.17295728      0.17635663
  
 HOMO - LUMO gap [eV] :    8.483572

 ENERGY| Total FORCE_EVAL ( QS ) energy (a.u.):            -1102.027206297009570


 -------------------------------------------------------------------------------
 -                                                                             -
 -                                DBCSR STATISTICS                             -
 -                                                                             -
 -------------------------------------------------------------------------------
 COUNTER                                      CPU                  ACC      ACC%
 number of processed stacks                227458                    0       0.0
 matmuls inhomo. stacks                         0                    0       0.0
 matmuls total                           17042250                    0       0.0
 flops   4 x    4 x    4                    89344                    0       0.0
 flops  36 x    4 x   36                   746496                    0       0.0
 flops  36 x    4 x   32                  4644864                    0       0.0
 flops  32 x    4 x   36                  4644864                    0       0.0
 flops   4 x    4 x  184                 13142016                    0       0.0
 flops  36 x   36 x  184                 15261696                    0       0.0
 flops 184 x    4 x    4                 20254720                    0       0.0
 flops  36 x    4 x  184                 30523392                    0       0.0
 flops 184 x    4 x   36                 30523392                    0       0.0
 flops  32 x    4 x   32                 30998528                    0       0.0
 flops   5 x   32 x   32                 94371840                    0       0.0
 flops  32 x   36 x  184                 94961664                    0       0.0
 flops  36 x   32 x  184                 94961664                    0       0.0
 flops  13 x   32 x   32                122683392                    0       0.0
 flops  32 x    4 x  184                201981952                    0       0.0
 flops 184 x    4 x   32                201981952                    0       0.0
 flops 184 x   36 x  184                624033792                    0       0.0
 flops   5 x    4 x    5                866132400                    0       0.0
 flops   5 x    5 x   32                874188800                    0       0.0
 flops  13 x    4 x    5               1108267680                    0       0.0
 flops   5 x    4 x   13               1108267680                    0       0.0
 flops  13 x    5 x   32               1109155840                    0       0.0
 flops   5 x   13 x   32               1113415680                    0       0.0
 flops 184 x    4 x  184               1248067584                    0       0.0
 flops  32 x   32 x   32               1275068416                    0       0.0
 flops  13 x    4 x   13               1409273424                    0       0.0
 flops  13 x   13 x   32               1441902592                    0       0.0
 flops   5 x   32 x    5               4381260800                    0       0.0
 flops  13 x   32 x    5               5606082560                    0       0.0
 flops   5 x   32 x   13               5606082560                    0       0.0
 flops 184 x   32 x   32               6366953472                    0       0.0
 flops  32 x   32 x  184               6680477696                    0       0.0
 flops  13 x   32 x   13               7128695808                    0       0.0
 flops 184 x   32 x  184              12758024192                    0       0.0
 flops total                          61667122752                    0       0.0
 marketing flops                      70888206336
 -------------------------------------------------------------------------------

 -------------------------------------------------------------------------------
 ----                             MULTIGRID INFO                            ----
 -------------------------------------------------------------------------------
 count for grid        1:          38071          cutoff [a.u.]          200.00
 count for grid        2:          57438          cutoff [a.u.]           66.67
 count for grid        3:          57763          cutoff [a.u.]           22.22
 count for grid        4:          11599          cutoff [a.u.]            7.41
 total gridlevel count  :         164871

 -------------------------------------------------------------------------------
 -                                                                             -
 -                         MESSAGE PASSING PERFORMANCE                         -
 -                                                                             -
 -------------------------------------------------------------------------------

 ROUTINE             CALLS  TOT TIME [s]  AVE VOLUME [Bytes]  PERFORMANCE [MB/s]
 MP_Group                5         0.000
 MP_Bcast             3435         2.585              77876.              103.49
 MP_Allreduce         7153         2.044                187.                0.65
 MP_Gather               4         0.001               1792.                7.83
 MP_Sync               155         1.506
 MP_Alltoall          7426         3.127
 MP_ISendRecv         2898         0.006              48653.            23100.95
 MP_Wait            176556         1.796
 MP_comm_split         113         0.016
 MP_ISend            78430         2.973              30263.              798.32
 MP_IRecv            78430         0.089              30084.            26543.35
 MP_Recv                 7         0.000             376832.             5682.50
 MP_Memory           50540         9.500
 -------------------------------------------------------------------------------


 -------------------------------------------------------------------------------
 -                                                                             -
 -                           R E F E R E N C E S                               -
 -                                                                             -
 -------------------------------------------------------------------------------
 
 CP2K version 2.6, the CP2K developers group (2014).
 CP2K is freely available from http://www.cp2k.org/ .

 Borstnik, U; VandeVondele, J; Weber, V; Hutter, J. 
 PARALLEL COMPUTING, 40 (5-6), 47-58 (2014). 
 Sparse matrix multiplication: The distributed block-compressed sparse
 row library.
 http://dx.doi.org/10.1016/j.parco.2014.03.012


 Hutter, J; Iannuzzi, M; Schiffmann, F; VandeVondele, J. 
 WILEY INTERDISCIPLINARY REVIEWS-COMPUTATIONAL MOLECULAR SCIENCE, 4 (1), 15-25 (2014). 
 CP2K: atomistic simulations of condensed matter systems.
 http://dx.doi.org/10.1002/wcms.1159


 Grimme, S; Ehrlich, S; Goerigk, L. 
 JOURNAL OF COMPUTATIONAL CHEMISTRY, 32, 1456 (2011). 
 Effect of the damping function in dispersion corrected density functional theory.
 http://dx.doi.org/10.1002/jcc.21759


 Grimme, S; Antony, J; Ehrlich, S; Krieg, H. 
 JOURNAL OF CHEMICAL PHYSICS, 132 (15), 154104 (2010). 
 A consistent and accurate ab initio parametrization of density
 functional dispersion correction (DFT-D) for the 94 elements H-Pu.
 http://dx.doi.org/10.1063/1.3382344


 Guidon, M; Hutter, J; VandeVondele, J. 
 JOURNAL OF CHEMICAL THEORY AND COMPUTATION, 5 (11), 3010-3021 (2009). 
 Robust Periodic Hartree-Fock Exchange for Large-Scale Simulations Using
 Gaussian Basis Sets.
 http://dx.doi.org/10.1021/ct900494g


 Guidon, M; Schiffmann, F; Hutter, J; VandeVondele, J. 
 JOURNAL OF CHEMICAL PHYSICS, 128 (21), 214104 (2008). 
 Ab initio molecular dynamics using hybrid density functionals.
 http://dx.doi.org/10.1063/1.2931945


 Krack, M. 
 THEORETICAL CHEMISTRY ACCOUNTS, 114 (1-3), 145-152 (2005). 
 Pseudopotentials for H to Kr optimized for gradient-corrected
 exchange-correlation functionals.
 http://dx.doi.org/10.1007/s00214-005-0655-y


 VandeVondele, J; Krack, M; Mohamed, F; Parrinello, M; Chassaing, T;
 Hutter, J. COMPUTER PHYSICS COMMUNICATIONS, 167 (2), 103-128 (2005). 
 QUICKSTEP: Fast and accurate density functional calculations using a
 mixed Gaussian and plane waves approach.
 http://dx.doi.org/10.1016/j.cpc.2004.12.014


 Frigo, M; Johnson, SG. 
 PROCEEDINGS OF THE IEEE, 93 (2), 216-231 (2005). 
 The design and implementation of FFTW3.
 http://dx.doi.org/10.1109/JPROC.2004.840301


 VandeVondele, J; Hutter, J. 
 JOURNAL OF CHEMICAL PHYSICS, 118 (10), 4365-4369 (2003). 
 An efficient orbital transformation method for electronic structure
 calculations.
 http://dx.doi.org/10.1063/1.1543154


 Hartwigsen, C; Goedecker, S; Hutter, J. 
 PHYSICAL REVIEW B, 58 (7), 3641-3662 (1998). 
 Relativistic separable dual-space Gaussian pseudopotentials from H to Rn.
 http://dx.doi.org/10.1103/PhysRevB.58.3641


 Lippert, G; Hutter, J; Parrinello, M. 
 MOLECULAR PHYSICS, 92 (3), 477-487 (1997). 
 A hybrid Gaussian and plane wave density functional scheme.
 http://dx.doi.org/10.1080/002689797170220


 Perdew, JP; Burke, K; Ernzerhof, M. 
 PHYSICAL REVIEW LETTERS, 77 (18), 3865-3868 (1996). 
 Generalized gradient approximation made simple.
 http://dx.doi.org/10.1103/PhysRevLett.77.3865


 Goedecker, S; Teter, M; Hutter, J. 
 PHYSICAL REVIEW B, 54 (3), 1703-1710 (1996). 
 Separable dual-space Gaussian pseudopotentials.
 http://dx.doi.org/10.1103/PhysRevB.54.1703


 -------------------------------------------------------------------------------
 -                                                                             -
 -                                T I M I N G                                  -
 -                                                                             -
 -------------------------------------------------------------------------------
 SUBROUTINE                       CALLS  ASD         SELF TIME        TOTAL TIME
                                MAXIMUM       AVERAGE  MAXIMUM  AVERAGE  MAXIMUM
 CP2K                                 1  1.0    0.028    0.033   62.280   62.285
 qs_energies_scf                      1  2.0    0.000    0.000   56.724   56.724
 scf_env_do_scf                       1  3.0    0.000    0.000   35.735   35.735
 qs_ks_update_qs_env                  8  5.0    0.000    0.000   33.400   33.402
 rebuild_ks_matrix                    7  6.0    0.000    0.000   33.398   33.400
 qs_ks_build_kohn_sham_matrix         7  7.0    0.002    0.002   33.398   33.400
 hfx_ks_matrix                        7  8.0    0.000    0.000   31.782   31.792
 integrate_four_center                7  9.0    7.403   10.208   31.778   31.788
 scf_env_do_scf_inner_loop            7  4.0    0.000    0.000   19.306   19.597
 integrate_four_center_main           7 10.0    0.004    0.004   16.889   18.498
 integrate_four_center_bin          469 11.0   16.886   18.494   16.886   18.494
 dbcsr_mm_cannon_multiply          2160  7.9    0.956    1.140   17.106   17.286
 scf_post_calculation_gpw             1  3.0    0.000    0.000   16.858   16.858
 make_lumo                            1  4.0    0.000    0.000   16.737   16.737
 ot_eigensolver                       1  5.0    0.007    0.007   16.725   16.725
 init_scf_loop                        1  4.0    0.000    0.000   16.136   16.137
 ot_mini                            150  6.0    0.002    0.002    8.728    8.733
 cannon_multiply_low               2160  8.9    0.791    1.055    7.631    7.992
 qs_ot_get_derivative                79  7.1    0.002    0.002    7.763    7.781
 dbcsr_make_images                 4320  8.9    0.011    0.012    6.031    6.181
 make_images                       4320  9.9    0.155    0.186    6.020    6.171
 integrate_four_center_getP           7 10.0    5.758    5.923    5.758    5.923
 quickstep_create_force_env           1  2.0    0.004    0.005    5.512    5.513
 create_qs_kind_set                   1  3.0    0.000    0.000    5.379    5.381
 read_qs_kind                         2  4.0    0.490    2.748    5.379    5.381
 parser_read_line                  4790  5.1    0.004    0.004    4.892    5.357
 parser_read_line_low                 9  6.2    0.005    0.030    4.888    5.354
 broadcast_input_information          9  7.2    4.883    5.348    4.883    5.348
 dbcsr_data_new                   74170 10.8    0.156    0.179    4.461    4.946
 internal_data_allocate           44909 11.9    4.307    4.774    4.307    4.774
 qs_ot_get_derivative_diag           53  8.0    0.004    0.004    4.088    4.099
 qs_energies_init_hamiltonians        1  3.0    0.000    0.000    3.951    3.951
 qs_env_update_s_mstruct              1  4.0    0.000    0.000    3.902    3.903
 calculate_rho_core                   1  5.0    2.148    2.868    3.879    3.879
 qs_ot_get_p                        155  6.0    0.002    0.002    3.710    3.792
 dbcsr_create_new                 31823  9.8    0.149    0.167    3.421    3.591
 rs_pw_transfer                      63  9.3    0.001    0.002    1.212    3.366
 dbcsr_data_release              132799 11.1    0.138    0.169    2.897    3.118
 rs_pw_transfer_RS2PW_200            10  8.7    0.889    3.044    0.889    3.044
 internal_data_deallocate         44909 12.1    2.762    2.989    2.762    2.989
 setup_buffer_matrices             4320  9.9    1.505    1.590    2.302    2.499
 qs_ot_get_orbitals                 154  6.0    0.003    0.003    2.353    2.366
 dbcsr_destroy                    26467  9.2    0.075    0.084    2.102    2.299
 buffer_matrices_ensure_size       4320  9.9    1.741    2.113    1.741    2.113
 fft_wrap_pw1pw2                    125  9.6    0.002    0.003    2.057    2.069
 fft_wrap_pw1pw2_200                 80 10.7    0.056    0.068    1.964    1.974
 fft3d_ps                           125 11.6    0.262    0.339    1.935    1.954
 qs_ot_p2m_diag                     111  7.0    0.003    0.004    1.878    1.894
 qs_ot_get_derivative_taylor         26  8.3    0.002    0.002    1.669    1.673
 make_images_sizes                 4320 10.9    1.265    1.539    1.265    1.539
 integrate_four_center_load           7 10.0    0.000    0.000    1.520    1.522
 hfx_load_balance                     1 11.0    0.001    0.001    1.520    1.522
 dbcsr_make_images_dense           3670  9.2    0.061    0.088    1.387    1.520
 cannon_multiply_low_metrocomm1   17280  9.9    0.767    1.517    0.767    1.517
 yz_to_x                             45 12.4    1.304    1.345    1.304    1.345
 -------------------------------------------------------------------------------

  **** **** ******  **  PROGRAM ENDED AT                 2015-03-10 11:53:42.787
 ***** ** ***  *** **   PROGRAM RAN ON                                      n267
 **    ****   ******    PROGRAM RAN BY                                     bja39
 ***** **    ** ** **   PROGRAM PROCESS ID                                 84872
  **** **  *******  **  PROGRAM STOPPED IN /home/dlambrecht/bja39/cp2k/hfx/hfx35
